LAMMPS (7 Feb 2024 - Development - patch_7Feb2024_update1-147-g4d89741d8c-modified)
  using 1 OpenMP thread(s) per MPI task
# exp: eq
units real
atom_style full

dimension 3
boundary p p p

read_data init.data
Reading data file ...
  orthogonal box = (0 0 0) to (82.327463 82.327463 82.327463)
  2 by 4 by 4 MPI processor grid
  reading atoms ...
  5600 atoms
  scanning bonds ...
  3 = max bonds/atom
  scanning angles ...
  6 = max angles/atom
  scanning dihedrals ...
  21 = max dihedrals/atom
  reading bonds ...
  5600 bonds
  reading angles ...
  10580 angles
  reading dihedrals ...
  17420 dihedrals
Finding 1-2 1-3 1-4 neighbors ...
  special bond factors lj:    0        0        0       
  special bond factors coul:  0        0        0       
     4 = max # of 1-2 neighbors
    12 = max # of 1-3 neighbors
    22 = max # of 1-4 neighbors
    26 = max # of special neighbors
  special bonds CPU = 0.003 seconds
  read_data CPU = 0.130 seconds
include system.ff
bond_style hybrid harmonic
angle_style hybrid harmonic
dihedral_style hybrid charmm multi/harmonic
special_bonds lj 0.0 0.0 0.5 coul 0.0 0.0 0.83333333
Finding 1-2 1-3 1-4 neighbors ...
  special bond factors lj:    0        0        0.5     
  special bond factors coul:  0        0        0.83333333
     4 = max # of 1-2 neighbors
    12 = max # of 1-3 neighbors
    22 = max # of 1-4 neighbors
    26 = max # of special neighbors
  special bonds CPU = 0.002 seconds
pair_style lj/cut/coul/long 9.0 9.0
pair_modify tail yes
kspace_style pppm 1e-8
pair_modify mix arithmetic
mass 1  12.0100000
mass 2   1.0080000
mass 3  12.0100000
mass 4  32.0600000
mass 5  32.0600000
mass 6  12.0100000
mass 7  16.0000000
mass 8  16.0000000
mass 9   1.0080000
mass 10  14.0100000
mass 11   1.0080000
mass 12   1.0080000
mass 13  32.0600000
mass 14  14.0100000
mass 15  32.0600000
mass 16  19.0000000
mass 17  12.0100000
mass 18  14.0100000
bond_coeff 1 harmonic    4.61100000e+02    1.39840000e+00
bond_coeff 2 harmonic    3.45800000e+02    1.08600000e+00
bond_coeff 3 harmonic    4.61100000e+02    1.39840000e+00
bond_coeff 4 harmonic    4.61100000e+02    1.39840000e+00
bond_coeff 5 harmonic    3.45800000e+02    1.08600000e+00
bond_coeff 6 harmonic    4.61100000e+02    1.39840000e+00
bond_coeff 7 harmonic    3.45800000e+02    1.08600000e+00
bond_coeff 8 harmonic    4.61100000e+02    1.39840000e+00
bond_coeff 9 harmonic    3.45800000e+02    1.08600000e+00
bond_coeff 10 harmonic    3.45800000e+02    1.08600000e+00
bond_coeff 11 harmonic    4.61100000e+02    1.39840000e+00
bond_coeff 12 harmonic    3.45900000e+02    1.49060000e+00
bond_coeff 13 harmonic    3.31300000e+02    1.67230000e+00
bond_coeff 14 harmonic    2.37900000e+02    1.80000000e+00
bond_coeff 15 harmonic    2.15900000e+02    1.83920000e+00
bond_coeff 16 harmonic    3.00900000e+02    1.53750000e+00
bond_coeff 17 harmonic    3.13000000e+02    1.52410000e+00
bond_coeff 18 harmonic    3.00900000e+02    1.53750000e+00
bond_coeff 19 harmonic    3.00900000e+02    1.53750000e+00
bond_coeff 20 harmonic    6.37700000e+02    1.21830000e+00
bond_coeff 21 harmonic    3.90800000e+02    1.35840000e+00
bond_coeff 22 harmonic    3.08600000e+02    1.43160000e+00
bond_coeff 23 harmonic    3.00900000e+02    1.53750000e+00
bond_coeff 24 harmonic    3.30600000e+02    1.09690000e+00
bond_coeff 25 harmonic    3.30600000e+02    1.09690000e+00
bond_coeff 26 harmonic    3.38700000e+02    1.09100000e+00
bond_coeff 27 harmonic    2.83300000e+02    1.51100000e+00
bond_coeff 28 harmonic    3.38700000e+02    1.09100000e+00
bond_coeff 29 harmonic    2.83300000e+02    1.51100000e+00
bond_coeff 30 harmonic    2.83300000e+02    1.51100000e+00
bond_coeff 31 harmonic    2.83300000e+02    1.51100000e+00
bond_coeff 32 harmonic    3.38700000e+02    1.09100000e+00
bond_coeff 33 harmonic    3.38700000e+02    1.09100000e+00
bond_coeff 34 harmonic    3.38700000e+02    1.09100000e+00
bond_coeff 35 harmonic    3.38700000e+02    1.09100000e+00
bond_coeff 36 harmonic    3.38700000e+02    1.09100000e+00
bond_coeff 37 harmonic    3.38700000e+02    1.09100000e+00
bond_coeff 38 harmonic    3.38700000e+02    1.09100000e+00
bond_coeff 39 harmonic    3.38700000e+02    1.09100000e+00
bond_coeff 40 harmonic    3.38700000e+02    1.09100000e+00
bond_coeff 41 harmonic    3.30600000e+02    1.09690000e+00
bond_coeff 42 harmonic    3.30600000e+02    1.09690000e+00
bond_coeff 43 harmonic    3.30600000e+02    1.09690000e+00
bond_coeff 44 harmonic    3.30600000e+02    1.09690000e+00
bond_coeff 45 harmonic    3.30600000e+02    1.09690000e+00
bond_coeff 46 harmonic    3.00900000e+02    1.53750000e+00
bond_coeff 47 harmonic    3.13000000e+02    1.52410000e+00
bond_coeff 48 harmonic    3.00900000e+02    1.53750000e+00
bond_coeff 49 harmonic    3.00900000e+02    1.53750000e+00
bond_coeff 50 harmonic    3.90800000e+02    1.35840000e+00
bond_coeff 51 harmonic    6.37700000e+02    1.21830000e+00
bond_coeff 52 harmonic    3.08600000e+02    1.43160000e+00
bond_coeff 53 harmonic    3.00900000e+02    1.53750000e+00
bond_coeff 54 harmonic    3.30600000e+02    1.09690000e+00
bond_coeff 55 harmonic    3.30600000e+02    1.09690000e+00
bond_coeff 56 harmonic    3.30600000e+02    1.09690000e+00
bond_coeff 57 harmonic    3.00900000e+02    1.53750000e+00
bond_coeff 58 harmonic    3.30600000e+02    1.09690000e+00
bond_coeff 59 harmonic    2.33500000e+02    1.80750000e+00
bond_coeff 60 harmonic    3.30600000e+02    1.09690000e+00
bond_coeff 61 harmonic    3.30600000e+02    1.09690000e+00
bond_coeff 62 harmonic    5.12700000e+02    1.45330000e+00
bond_coeff 63 harmonic    3.17100000e+02    1.67200000e+00
bond_coeff 64 harmonic    5.12700000e+02    1.45330000e+00
bond_coeff 65 harmonic    3.17100000e+02    1.67230000e+00
bond_coeff 66 harmonic    4.93000000e+02    1.46600000e+00
bond_coeff 67 harmonic    2.32800000e+02    1.80870000e+00
bond_coeff 68 harmonic    4.93000000e+02    1.46600000e+00
bond_coeff 69 harmonic    3.56900000e+02    1.34970000e+00
bond_coeff 70 harmonic    3.56900000e+02    1.34970000e+00
bond_coeff 71 harmonic    3.56900000e+02    1.34970000e+00
bond_coeff 72 harmonic    3.30600000e+02    1.09690000e+00
bond_coeff 73 harmonic    3.30600000e+02    1.09690000e+00
bond_coeff 74 harmonic    3.30600000e+02    1.09690000e+00
bond_coeff 75 harmonic    3.30600000e+02    1.09690000e+00
bond_coeff 76 harmonic    3.30600000e+02    1.09690000e+00
bond_coeff 77 harmonic    3.00900000e+02    1.53750000e+00
bond_coeff 78 harmonic    3.13000000e+02    1.52410000e+00
bond_coeff 79 harmonic    3.00900000e+02    1.53750000e+00
bond_coeff 80 harmonic    3.00900000e+02    1.53750000e+00
bond_coeff 81 harmonic    6.37700000e+02    1.21830000e+00
bond_coeff 82 harmonic    3.90800000e+02    1.35840000e+00
bond_coeff 83 harmonic    3.08600000e+02    1.43160000e+00
bond_coeff 84 harmonic    3.00900000e+02    1.53750000e+00
bond_coeff 85 harmonic    3.30600000e+02    1.09690000e+00
bond_coeff 86 harmonic    3.30600000e+02    1.09690000e+00
bond_coeff 87 harmonic    3.38700000e+02    1.09100000e+00
bond_coeff 88 harmonic    2.83300000e+02    1.51100000e+00
bond_coeff 89 harmonic    3.38700000e+02    1.09100000e+00
bond_coeff 90 harmonic    2.83300000e+02    1.51100000e+00
bond_coeff 91 harmonic    2.83300000e+02    1.51100000e+00
bond_coeff 92 harmonic    2.83300000e+02    1.51100000e+00
bond_coeff 93 harmonic    3.38700000e+02    1.09100000e+00
bond_coeff 94 harmonic    3.38700000e+02    1.09100000e+00
bond_coeff 95 harmonic    3.38700000e+02    1.09100000e+00
bond_coeff 96 harmonic    3.38700000e+02    1.09100000e+00
bond_coeff 97 harmonic    3.38700000e+02    1.09100000e+00
bond_coeff 98 harmonic    3.38700000e+02    1.09100000e+00
bond_coeff 99 harmonic    3.38700000e+02    1.09100000e+00
bond_coeff 100 harmonic    3.38700000e+02    1.09100000e+00
bond_coeff 101 harmonic    3.38700000e+02    1.09100000e+00
bond_coeff 102 harmonic    3.30600000e+02    1.09690000e+00
bond_coeff 103 harmonic    3.30600000e+02    1.09690000e+00
bond_coeff 104 harmonic    3.30600000e+02    1.09690000e+00
bond_coeff 105 harmonic    3.30600000e+02    1.09690000e+00
bond_coeff 106 harmonic    3.30600000e+02    1.09690000e+00
bond_coeff 107 harmonic    3.00900000e+02    1.53750000e+00
bond_coeff 108 harmonic    3.13000000e+02    1.52410000e+00
bond_coeff 109 harmonic    3.00900000e+02    1.53750000e+00
bond_coeff 110 harmonic    3.00900000e+02    1.53750000e+00
bond_coeff 111 harmonic    3.90800000e+02    1.35840000e+00
bond_coeff 112 harmonic    6.37700000e+02    1.21830000e+00
bond_coeff 113 harmonic    3.08600000e+02    1.43160000e+00
bond_coeff 114 harmonic    3.00900000e+02    1.53750000e+00
bond_coeff 115 harmonic    3.30600000e+02    1.09690000e+00
bond_coeff 116 harmonic    3.30600000e+02    1.09690000e+00
bond_coeff 117 harmonic    3.30600000e+02    1.09690000e+00
bond_coeff 118 harmonic    3.00900000e+02    1.53750000e+00
bond_coeff 119 harmonic    3.30600000e+02    1.09690000e+00
bond_coeff 120 harmonic    2.33500000e+02    1.80750000e+00
bond_coeff 121 harmonic    3.30600000e+02    1.09690000e+00
bond_coeff 122 harmonic    3.30600000e+02    1.09690000e+00
bond_coeff 123 harmonic    5.12700000e+02    1.45330000e+00
bond_coeff 124 harmonic    3.17100000e+02    1.67200000e+00
bond_coeff 125 harmonic    5.12700000e+02    1.45330000e+00
bond_coeff 126 harmonic    3.17100000e+02    1.67230000e+00
bond_coeff 127 harmonic    4.93000000e+02    1.46600000e+00
bond_coeff 128 harmonic    2.32800000e+02    1.80870000e+00
bond_coeff 129 harmonic    4.93000000e+02    1.46600000e+00
bond_coeff 130 harmonic    3.56900000e+02    1.34970000e+00
bond_coeff 131 harmonic    3.56900000e+02    1.34970000e+00
bond_coeff 132 harmonic    3.56900000e+02    1.34970000e+00
bond_coeff 133 harmonic    3.30600000e+02    1.09690000e+00
bond_coeff 134 harmonic    3.30600000e+02    1.09690000e+00
bond_coeff 135 harmonic    3.30600000e+02    1.09690000e+00
bond_coeff 136 harmonic    3.30600000e+02    1.09690000e+00
bond_coeff 137 harmonic    3.30600000e+02    1.09690000e+00
bond_coeff 138 harmonic    3.00900000e+02    1.53750000e+00
bond_coeff 139 harmonic    3.13000000e+02    1.52410000e+00
bond_coeff 140 harmonic    3.00900000e+02    1.53750000e+00
bond_coeff 141 harmonic    3.00900000e+02    1.53750000e+00
bond_coeff 142 harmonic    6.37700000e+02    1.21830000e+00
bond_coeff 143 harmonic    3.90800000e+02    1.35840000e+00
bond_coeff 144 harmonic    3.08600000e+02    1.43160000e+00
bond_coeff 145 harmonic    3.00900000e+02    1.53750000e+00
bond_coeff 146 harmonic    3.30600000e+02    1.09690000e+00
bond_coeff 147 harmonic    3.30600000e+02    1.09690000e+00
bond_coeff 148 harmonic    3.38700000e+02    1.09100000e+00
bond_coeff 149 harmonic    2.83300000e+02    1.51100000e+00
bond_coeff 150 harmonic    3.38700000e+02    1.09100000e+00
bond_coeff 151 harmonic    2.83300000e+02    1.51100000e+00
bond_coeff 152 harmonic    2.83300000e+02    1.51100000e+00
bond_coeff 153 harmonic    2.83300000e+02    1.51100000e+00
bond_coeff 154 harmonic    3.38700000e+02    1.09100000e+00
bond_coeff 155 harmonic    3.38700000e+02    1.09100000e+00
bond_coeff 156 harmonic    3.38700000e+02    1.09100000e+00
bond_coeff 157 harmonic    3.38700000e+02    1.09100000e+00
bond_coeff 158 harmonic    3.38700000e+02    1.09100000e+00
bond_coeff 159 harmonic    3.38700000e+02    1.09100000e+00
bond_coeff 160 harmonic    3.38700000e+02    1.09100000e+00
bond_coeff 161 harmonic    3.38700000e+02    1.09100000e+00
bond_coeff 162 harmonic    3.38700000e+02    1.09100000e+00
bond_coeff 163 harmonic    3.30600000e+02    1.09690000e+00
bond_coeff 164 harmonic    3.30600000e+02    1.09690000e+00
bond_coeff 165 harmonic    3.30600000e+02    1.09690000e+00
bond_coeff 166 harmonic    3.30600000e+02    1.09690000e+00
bond_coeff 167 harmonic    3.30600000e+02    1.09690000e+00
bond_coeff 168 harmonic    3.00900000e+02    1.53750000e+00
bond_coeff 169 harmonic    3.13000000e+02    1.52410000e+00
bond_coeff 170 harmonic    3.00900000e+02    1.53750000e+00
bond_coeff 171 harmonic    3.00900000e+02    1.53750000e+00
bond_coeff 172 harmonic    3.90800000e+02    1.35840000e+00
bond_coeff 173 harmonic    6.37700000e+02    1.21830000e+00
bond_coeff 174 harmonic    3.08600000e+02    1.43160000e+00
bond_coeff 175 harmonic    3.00900000e+02    1.53750000e+00
bond_coeff 176 harmonic    3.30600000e+02    1.09690000e+00
bond_coeff 177 harmonic    3.30600000e+02    1.09690000e+00
bond_coeff 178 harmonic    3.30600000e+02    1.09690000e+00
bond_coeff 179 harmonic    3.00900000e+02    1.53750000e+00
bond_coeff 180 harmonic    3.30600000e+02    1.09690000e+00
bond_coeff 181 harmonic    2.33500000e+02    1.80750000e+00
bond_coeff 182 harmonic    3.30600000e+02    1.09690000e+00
bond_coeff 183 harmonic    3.30600000e+02    1.09690000e+00
bond_coeff 184 harmonic    5.12700000e+02    1.45330000e+00
bond_coeff 185 harmonic    3.17100000e+02    1.67200000e+00
bond_coeff 186 harmonic    5.12700000e+02    1.45330000e+00
bond_coeff 187 harmonic    3.17100000e+02    1.67230000e+00
bond_coeff 188 harmonic    4.93000000e+02    1.46600000e+00
bond_coeff 189 harmonic    2.32800000e+02    1.80870000e+00
bond_coeff 190 harmonic    4.93000000e+02    1.46600000e+00
bond_coeff 191 harmonic    3.56900000e+02    1.34970000e+00
bond_coeff 192 harmonic    3.56900000e+02    1.34970000e+00
bond_coeff 193 harmonic    3.56900000e+02    1.34970000e+00
bond_coeff 194 harmonic    3.30600000e+02    1.09690000e+00
bond_coeff 195 harmonic    3.30600000e+02    1.09690000e+00
bond_coeff 196 harmonic    3.30600000e+02    1.09690000e+00
bond_coeff 197 harmonic    3.30600000e+02    1.09690000e+00
bond_coeff 198 harmonic    3.30600000e+02    1.09690000e+00
bond_coeff 199 harmonic    3.00900000e+02    1.53750000e+00
bond_coeff 200 harmonic    3.13000000e+02    1.52410000e+00
bond_coeff 201 harmonic    3.00900000e+02    1.53750000e+00
bond_coeff 202 harmonic    3.00900000e+02    1.53750000e+00
bond_coeff 203 harmonic    6.37700000e+02    1.21830000e+00
bond_coeff 204 harmonic    3.90800000e+02    1.35840000e+00
bond_coeff 205 harmonic    3.08600000e+02    1.43160000e+00
bond_coeff 206 harmonic    3.00900000e+02    1.53750000e+00
bond_coeff 207 harmonic    3.30600000e+02    1.09690000e+00
bond_coeff 208 harmonic    3.30600000e+02    1.09690000e+00
bond_coeff 209 harmonic    3.38700000e+02    1.09100000e+00
bond_coeff 210 harmonic    2.83300000e+02    1.51100000e+00
bond_coeff 211 harmonic    3.38700000e+02    1.09100000e+00
bond_coeff 212 harmonic    2.83300000e+02    1.51100000e+00
bond_coeff 213 harmonic    2.83300000e+02    1.51100000e+00
bond_coeff 214 harmonic    2.83300000e+02    1.51100000e+00
bond_coeff 215 harmonic    3.38700000e+02    1.09100000e+00
bond_coeff 216 harmonic    3.38700000e+02    1.09100000e+00
bond_coeff 217 harmonic    3.38700000e+02    1.09100000e+00
bond_coeff 218 harmonic    3.38700000e+02    1.09100000e+00
bond_coeff 219 harmonic    3.38700000e+02    1.09100000e+00
bond_coeff 220 harmonic    3.38700000e+02    1.09100000e+00
bond_coeff 221 harmonic    3.38700000e+02    1.09100000e+00
bond_coeff 222 harmonic    3.38700000e+02    1.09100000e+00
bond_coeff 223 harmonic    3.38700000e+02    1.09100000e+00
bond_coeff 224 harmonic    3.30600000e+02    1.09690000e+00
bond_coeff 225 harmonic    3.30600000e+02    1.09690000e+00
bond_coeff 226 harmonic    3.30600000e+02    1.09690000e+00
bond_coeff 227 harmonic    3.30600000e+02    1.09690000e+00
bond_coeff 228 harmonic    3.30600000e+02    1.09690000e+00
bond_coeff 229 harmonic    3.00900000e+02    1.53750000e+00
bond_coeff 230 harmonic    3.13000000e+02    1.52410000e+00
bond_coeff 231 harmonic    3.00900000e+02    1.53750000e+00
bond_coeff 232 harmonic    3.00900000e+02    1.53750000e+00
bond_coeff 233 harmonic    3.90800000e+02    1.35840000e+00
bond_coeff 234 harmonic    6.37700000e+02    1.21830000e+00
bond_coeff 235 harmonic    3.08600000e+02    1.43160000e+00
bond_coeff 236 harmonic    3.00900000e+02    1.53750000e+00
bond_coeff 237 harmonic    3.30600000e+02    1.09690000e+00
bond_coeff 238 harmonic    3.30600000e+02    1.09690000e+00
bond_coeff 239 harmonic    3.30600000e+02    1.09690000e+00
bond_coeff 240 harmonic    3.00900000e+02    1.53750000e+00
bond_coeff 241 harmonic    3.30600000e+02    1.09690000e+00
bond_coeff 242 harmonic    2.33500000e+02    1.80750000e+00
bond_coeff 243 harmonic    3.30600000e+02    1.09690000e+00
bond_coeff 244 harmonic    3.30600000e+02    1.09690000e+00
bond_coeff 245 harmonic    5.12700000e+02    1.45330000e+00
bond_coeff 246 harmonic    3.17100000e+02    1.67200000e+00
bond_coeff 247 harmonic    5.12700000e+02    1.45330000e+00
bond_coeff 248 harmonic    3.17100000e+02    1.67230000e+00
bond_coeff 249 harmonic    4.93000000e+02    1.46600000e+00
bond_coeff 250 harmonic    2.32800000e+02    1.80870000e+00
bond_coeff 251 harmonic    4.93000000e+02    1.46600000e+00
bond_coeff 252 harmonic    3.56900000e+02    1.34970000e+00
bond_coeff 253 harmonic    3.56900000e+02    1.34970000e+00
bond_coeff 254 harmonic    3.56900000e+02    1.34970000e+00
bond_coeff 255 harmonic    3.30600000e+02    1.09690000e+00
bond_coeff 256 harmonic    3.30600000e+02    1.09690000e+00
bond_coeff 257 harmonic    3.30600000e+02    1.09690000e+00
bond_coeff 258 harmonic    3.30600000e+02    1.09690000e+00
bond_coeff 259 harmonic    3.30600000e+02    1.09690000e+00
bond_coeff 260 harmonic    3.00900000e+02    1.53750000e+00
bond_coeff 261 harmonic    3.71600000e+02    1.46710000e+00
bond_coeff 262 harmonic    3.00900000e+02    1.53750000e+00
bond_coeff 263 harmonic    3.00900000e+02    1.53750000e+00
bond_coeff 264 harmonic    9.54600000e+02    1.15350000e+00
bond_coeff 265 harmonic    3.00900000e+02    1.53750000e+00
bond_coeff 266 harmonic    3.30600000e+02    1.09690000e+00
bond_coeff 267 harmonic    3.30600000e+02    1.09690000e+00
bond_coeff 268 harmonic    3.00900000e+02    1.53750000e+00
bond_coeff 269 harmonic    3.30600000e+02    1.09690000e+00
bond_coeff 270 harmonic    3.30600000e+02    1.09690000e+00
bond_coeff 271 harmonic    3.08600000e+02    1.43160000e+00
bond_coeff 272 harmonic    3.30600000e+02    1.09690000e+00
bond_coeff 273 harmonic    3.30600000e+02    1.09690000e+00
bond_coeff 274 harmonic    3.08600000e+02    1.43160000e+00
bond_coeff 275 harmonic    3.30600000e+02    1.09690000e+00
bond_coeff 276 harmonic    3.30600000e+02    1.09690000e+00
bond_coeff 277 harmonic    3.30600000e+02    1.09690000e+00
bond_coeff 278 harmonic    3.30600000e+02    1.09690000e+00
bond_coeff 279 harmonic    3.30600000e+02    1.09690000e+00
bond_coeff 280 harmonic    3.30600000e+02    1.09690000e+00
angle_coeff 1 harmonic    6.66000000e+01    1.20020052e+02
angle_coeff 2 harmonic    4.82000000e+01    1.19880051e+02
angle_coeff 3 harmonic    6.66000000e+01    1.20020052e+02
angle_coeff 4 harmonic    6.43000000e+01    1.20330052e+02
angle_coeff 5 harmonic    4.82000000e+01    1.19880051e+02
angle_coeff 6 harmonic    6.66000000e+01    1.20020052e+02
angle_coeff 7 harmonic    6.66000000e+01    1.20020052e+02
angle_coeff 8 harmonic    4.82000000e+01    1.19880051e+02
angle_coeff 9 harmonic    4.82000000e+01    1.19880051e+02
angle_coeff 10 harmonic    6.66000000e+01    1.20020052e+02
angle_coeff 11 harmonic    4.82000000e+01    1.19880051e+02
angle_coeff 12 harmonic    4.82000000e+01    1.19880051e+02
angle_coeff 13 harmonic    4.82000000e+01    1.19880051e+02
angle_coeff 14 harmonic    6.66000000e+01    1.20020052e+02
angle_coeff 15 harmonic    4.82000000e+01    1.19880051e+02
angle_coeff 16 harmonic    6.43000000e+01    1.20330052e+02
angle_coeff 17 harmonic    4.82000000e+01    1.19880051e+02
angle_coeff 18 harmonic    4.82000000e+01    1.19880051e+02
angle_coeff 19 harmonic    6.26000000e+01    1.22680052e+02
angle_coeff 20 harmonic    6.15000000e+01    1.15050050e+02
angle_coeff 21 harmonic    6.09000000e+01    9.91600426e+01
angle_coeff 22 harmonic    6.18000000e+01    1.23190053e+02
angle_coeff 23 harmonic    6.13000000e+01    1.10270047e+02
angle_coeff 24 harmonic    6.33000000e+01    1.11040048e+02
angle_coeff 25 harmonic    6.29000000e+01    1.11510048e+02
angle_coeff 26 harmonic    6.29000000e+01    1.11510048e+02
angle_coeff 27 harmonic    6.74000000e+01    1.23200053e+02
angle_coeff 28 harmonic    6.89000000e+01    1.10720048e+02
angle_coeff 29 harmonic    4.63000000e+01    1.09800047e+02
angle_coeff 30 harmonic    4.63000000e+01    1.09800047e+02
angle_coeff 31 harmonic    4.63000000e+01    1.09800047e+02
angle_coeff 32 harmonic    4.63000000e+01    1.09800047e+02
angle_coeff 33 harmonic    4.63000000e+01    1.09800047e+02
angle_coeff 34 harmonic    6.29000000e+01    1.11510048e+02
angle_coeff 35 harmonic    6.33000000e+01    1.11040048e+02
angle_coeff 36 harmonic    6.33000000e+01    1.11040048e+02
angle_coeff 37 harmonic    6.33000000e+01    1.15980050e+02
angle_coeff 38 harmonic    7.53000000e+01    1.23250052e+02
angle_coeff 39 harmonic    6.80000000e+01    1.07970046e+02
angle_coeff 40 harmonic    5.08000000e+01    1.09780047e+02
angle_coeff 41 harmonic    5.08000000e+01    1.09780047e+02
angle_coeff 42 harmonic    4.62000000e+01    1.10560047e+02
angle_coeff 43 harmonic    6.42000000e+01    1.14210049e+02
angle_coeff 44 harmonic    4.62000000e+01    1.10560047e+02
angle_coeff 45 harmonic    4.64000000e+01    1.09560047e+02
angle_coeff 46 harmonic    4.64000000e+01    1.09560047e+02
angle_coeff 47 harmonic    6.26000000e+01    1.09660047e+02
angle_coeff 48 harmonic    6.26000000e+01    1.09660047e+02
angle_coeff 49 harmonic    6.26000000e+01    1.09660047e+02
angle_coeff 50 harmonic    4.86000000e+01    1.08010046e+02
angle_coeff 51 harmonic    3.92000000e+01    1.09750047e+02
angle_coeff 52 harmonic    4.86000000e+01    1.08010046e+02
angle_coeff 53 harmonic    4.86000000e+01    1.08010046e+02
angle_coeff 54 harmonic    4.86000000e+01    1.08010046e+02
angle_coeff 55 harmonic    4.86000000e+01    1.08010046e+02
angle_coeff 56 harmonic    4.86000000e+01    1.08010046e+02
angle_coeff 57 harmonic    4.86000000e+01    1.08010046e+02
angle_coeff 58 harmonic    4.86000000e+01    1.08010046e+02
angle_coeff 59 harmonic    4.86000000e+01    1.08010046e+02
angle_coeff 60 harmonic    4.86000000e+01    1.08010046e+02
angle_coeff 61 harmonic    4.86000000e+01    1.08010046e+02
angle_coeff 62 harmonic    6.26000000e+01    1.09660047e+02
angle_coeff 63 harmonic    6.26000000e+01    1.09660047e+02
angle_coeff 64 harmonic    3.92000000e+01    1.09750047e+02
angle_coeff 65 harmonic    3.92000000e+01    1.09750047e+02
angle_coeff 66 harmonic    3.92000000e+01    1.09750047e+02
angle_coeff 67 harmonic    6.26000000e+01    1.09660047e+02
angle_coeff 68 harmonic    3.92000000e+01    1.09750047e+02
angle_coeff 69 harmonic    3.92000000e+01    1.09750047e+02
angle_coeff 70 harmonic    3.92000000e+01    1.09750047e+02
angle_coeff 71 harmonic    3.92000000e+01    1.09750047e+02
angle_coeff 72 harmonic    3.92000000e+01    1.09750047e+02
angle_coeff 73 harmonic    3.92000000e+01    1.09750047e+02
angle_coeff 74 harmonic    3.92000000e+01    1.08460047e+02
angle_coeff 75 harmonic    6.29000000e+01    1.11510048e+02
angle_coeff 76 harmonic    3.94000000e+01    1.07580046e+02
angle_coeff 77 harmonic    3.94000000e+01    1.07580046e+02
angle_coeff 78 harmonic    3.94000000e+01    1.07580046e+02
angle_coeff 79 harmonic    6.33000000e+01    1.11040048e+02
angle_coeff 80 harmonic    6.29000000e+01    1.11510048e+02
angle_coeff 81 harmonic    6.29000000e+01    1.11510048e+02
angle_coeff 82 harmonic    3.94000000e+01    1.07580046e+02
angle_coeff 83 harmonic    4.63000000e+01    1.09800047e+02
angle_coeff 84 harmonic    4.63000000e+01    1.09800047e+02
angle_coeff 85 harmonic    6.89000000e+01    1.10720048e+02
angle_coeff 86 harmonic    6.74000000e+01    1.23200053e+02
angle_coeff 87 harmonic    4.63000000e+01    1.09800047e+02
angle_coeff 88 harmonic    4.63000000e+01    1.09800047e+02
angle_coeff 89 harmonic    4.63000000e+01    1.09800047e+02
angle_coeff 90 harmonic    4.63000000e+01    1.09800047e+02
angle_coeff 91 harmonic    4.63000000e+01    1.09800047e+02
angle_coeff 92 harmonic    6.29000000e+01    1.11510048e+02
angle_coeff 93 harmonic    6.33000000e+01    1.11040048e+02
angle_coeff 94 harmonic    6.33000000e+01    1.11040048e+02
angle_coeff 95 harmonic    6.33000000e+01    1.15980050e+02
angle_coeff 96 harmonic    7.53000000e+01    1.23250052e+02
angle_coeff 97 harmonic    6.80000000e+01    1.07970046e+02
angle_coeff 98 harmonic    5.08000000e+01    1.09780047e+02
angle_coeff 99 harmonic    5.08000000e+01    1.09780047e+02
angle_coeff 100 harmonic    4.63000000e+01    1.09800047e+02
angle_coeff 101 harmonic    6.29000000e+01    1.11510048e+02
angle_coeff 102 harmonic    4.63000000e+01    1.09800047e+02
angle_coeff 103 harmonic    4.64000000e+01    1.09560047e+02
angle_coeff 104 harmonic    4.64000000e+01    1.09560047e+02
angle_coeff 105 harmonic    6.21000000e+01    1.10220048e+02
angle_coeff 106 harmonic    4.64000000e+01    1.09560047e+02
angle_coeff 107 harmonic    4.64000000e+01    1.09560047e+02
angle_coeff 108 harmonic    4.63000000e+01    1.09800047e+02
angle_coeff 109 harmonic    3.94000000e+01    1.07580046e+02
angle_coeff 110 harmonic    4.63000000e+01    1.09800047e+02
angle_coeff 111 harmonic    6.54000000e+01    1.08610046e+02
angle_coeff 112 harmonic    1.63000000e+01    1.08190046e+02
angle_coeff 113 harmonic    6.54000000e+01    1.08610046e+02
angle_coeff 114 harmonic    4.32000000e+01    1.07150046e+02
angle_coeff 115 harmonic    4.32000000e+01    1.07150046e+02
angle_coeff 116 harmonic    6.59000000e+01    1.19630051e+02
angle_coeff 117 harmonic    7.08000000e+01    1.19100051e+02
angle_coeff 118 harmonic    7.36000000e+01    1.20050052e+02
angle_coeff 119 harmonic    7.08000000e+01    1.19100051e+02
angle_coeff 120 harmonic    7.03000000e+01    1.09650047e+02
angle_coeff 121 harmonic    6.41000000e+01    1.02190044e+02
angle_coeff 122 harmonic    7.03000000e+01    1.09650047e+02
angle_coeff 123 harmonic    6.31000000e+01    1.09680047e+02
angle_coeff 124 harmonic    6.31000000e+01    1.09680047e+02
angle_coeff 125 harmonic    6.31000000e+01    1.09680047e+02
angle_coeff 126 harmonic    6.54000000e+01    1.07850047e+02
angle_coeff 127 harmonic    7.25000000e+01    1.21410052e+02
angle_coeff 128 harmonic    6.54000000e+01    1.07850047e+02
angle_coeff 129 harmonic    7.09000000e+01    1.07360046e+02
angle_coeff 130 harmonic    7.09000000e+01    1.07360046e+02
angle_coeff 131 harmonic    7.09000000e+01    1.07360046e+02
angle_coeff 132 harmonic    3.92000000e+01    1.08460047e+02
angle_coeff 133 harmonic    3.92000000e+01    1.08460047e+02
angle_coeff 134 harmonic    6.29000000e+01    1.11510048e+02
angle_coeff 135 harmonic    3.94000000e+01    1.07580046e+02
angle_coeff 136 harmonic    3.94000000e+01    1.07580046e+02
angle_coeff 137 harmonic    3.94000000e+01    1.07580046e+02
angle_coeff 138 harmonic    6.33000000e+01    1.11040048e+02
angle_coeff 139 harmonic    6.29000000e+01    1.11510048e+02
angle_coeff 140 harmonic    6.29000000e+01    1.11510048e+02
angle_coeff 141 harmonic    3.94000000e+01    1.07580046e+02
angle_coeff 142 harmonic    4.63000000e+01    1.09800047e+02
angle_coeff 143 harmonic    4.63000000e+01    1.09800047e+02
angle_coeff 144 harmonic    6.74000000e+01    1.23200053e+02
angle_coeff 145 harmonic    6.89000000e+01    1.10720048e+02
angle_coeff 146 harmonic    4.63000000e+01    1.09800047e+02
angle_coeff 147 harmonic    4.63000000e+01    1.09800047e+02
angle_coeff 148 harmonic    4.63000000e+01    1.09800047e+02
angle_coeff 149 harmonic    4.63000000e+01    1.09800047e+02
angle_coeff 150 harmonic    4.63000000e+01    1.09800047e+02
angle_coeff 151 harmonic    6.29000000e+01    1.11510048e+02
angle_coeff 152 harmonic    6.33000000e+01    1.11040048e+02
angle_coeff 153 harmonic    6.33000000e+01    1.11040048e+02
angle_coeff 154 harmonic    6.33000000e+01    1.15980050e+02
angle_coeff 155 harmonic    7.53000000e+01    1.23250052e+02
angle_coeff 156 harmonic    6.80000000e+01    1.07970046e+02
angle_coeff 157 harmonic    5.08000000e+01    1.09780047e+02
angle_coeff 158 harmonic    5.08000000e+01    1.09780047e+02
angle_coeff 159 harmonic    4.62000000e+01    1.10560047e+02
angle_coeff 160 harmonic    6.42000000e+01    1.14210049e+02
angle_coeff 161 harmonic    4.62000000e+01    1.10560047e+02
angle_coeff 162 harmonic    4.64000000e+01    1.09560047e+02
angle_coeff 163 harmonic    4.64000000e+01    1.09560047e+02
angle_coeff 164 harmonic    6.26000000e+01    1.09660047e+02
angle_coeff 165 harmonic    6.26000000e+01    1.09660047e+02
angle_coeff 166 harmonic    6.26000000e+01    1.09660047e+02
angle_coeff 167 harmonic    4.86000000e+01    1.08010046e+02
angle_coeff 168 harmonic    3.92000000e+01    1.09750047e+02
angle_coeff 169 harmonic    4.86000000e+01    1.08010046e+02
angle_coeff 170 harmonic    4.86000000e+01    1.08010046e+02
angle_coeff 171 harmonic    4.86000000e+01    1.08010046e+02
angle_coeff 172 harmonic    4.86000000e+01    1.08010046e+02
angle_coeff 173 harmonic    4.86000000e+01    1.08010046e+02
angle_coeff 174 harmonic    4.86000000e+01    1.08010046e+02
angle_coeff 175 harmonic    4.86000000e+01    1.08010046e+02
angle_coeff 176 harmonic    4.86000000e+01    1.08010046e+02
angle_coeff 177 harmonic    4.86000000e+01    1.08010046e+02
angle_coeff 178 harmonic    4.86000000e+01    1.08010046e+02
angle_coeff 179 harmonic    6.26000000e+01    1.09660047e+02
angle_coeff 180 harmonic    6.26000000e+01    1.09660047e+02
angle_coeff 181 harmonic    3.92000000e+01    1.09750047e+02
angle_coeff 182 harmonic    3.92000000e+01    1.09750047e+02
angle_coeff 183 harmonic    3.92000000e+01    1.09750047e+02
angle_coeff 184 harmonic    6.26000000e+01    1.09660047e+02
angle_coeff 185 harmonic    3.92000000e+01    1.09750047e+02
angle_coeff 186 harmonic    3.92000000e+01    1.09750047e+02
angle_coeff 187 harmonic    3.92000000e+01    1.09750047e+02
angle_coeff 188 harmonic    3.92000000e+01    1.09750047e+02
angle_coeff 189 harmonic    3.92000000e+01    1.09750047e+02
angle_coeff 190 harmonic    3.92000000e+01    1.09750047e+02
angle_coeff 191 harmonic    3.92000000e+01    1.08460047e+02
angle_coeff 192 harmonic    6.29000000e+01    1.11510048e+02
angle_coeff 193 harmonic    3.94000000e+01    1.07580046e+02
angle_coeff 194 harmonic    3.94000000e+01    1.07580046e+02
angle_coeff 195 harmonic    3.94000000e+01    1.07580046e+02
angle_coeff 196 harmonic    6.33000000e+01    1.11040048e+02
angle_coeff 197 harmonic    6.29000000e+01    1.11510048e+02
angle_coeff 198 harmonic    6.29000000e+01    1.11510048e+02
angle_coeff 199 harmonic    3.94000000e+01    1.07580046e+02
angle_coeff 200 harmonic    4.63000000e+01    1.09800047e+02
angle_coeff 201 harmonic    4.63000000e+01    1.09800047e+02
angle_coeff 202 harmonic    6.89000000e+01    1.10720048e+02
angle_coeff 203 harmonic    6.74000000e+01    1.23200053e+02
angle_coeff 204 harmonic    4.63000000e+01    1.09800047e+02
angle_coeff 205 harmonic    4.63000000e+01    1.09800047e+02
angle_coeff 206 harmonic    4.63000000e+01    1.09800047e+02
angle_coeff 207 harmonic    4.63000000e+01    1.09800047e+02
angle_coeff 208 harmonic    4.63000000e+01    1.09800047e+02
angle_coeff 209 harmonic    6.29000000e+01    1.11510048e+02
angle_coeff 210 harmonic    6.33000000e+01    1.11040048e+02
angle_coeff 211 harmonic    6.33000000e+01    1.11040048e+02
angle_coeff 212 harmonic    6.33000000e+01    1.15980050e+02
angle_coeff 213 harmonic    7.53000000e+01    1.23250052e+02
angle_coeff 214 harmonic    6.80000000e+01    1.07970046e+02
angle_coeff 215 harmonic    5.08000000e+01    1.09780047e+02
angle_coeff 216 harmonic    5.08000000e+01    1.09780047e+02
angle_coeff 217 harmonic    4.63000000e+01    1.09800047e+02
angle_coeff 218 harmonic    6.29000000e+01    1.11510048e+02
angle_coeff 219 harmonic    4.63000000e+01    1.09800047e+02
angle_coeff 220 harmonic    4.64000000e+01    1.09560047e+02
angle_coeff 221 harmonic    4.64000000e+01    1.09560047e+02
angle_coeff 222 harmonic    6.21000000e+01    1.10220048e+02
angle_coeff 223 harmonic    4.64000000e+01    1.09560047e+02
angle_coeff 224 harmonic    4.64000000e+01    1.09560047e+02
angle_coeff 225 harmonic    4.63000000e+01    1.09800047e+02
angle_coeff 226 harmonic    3.94000000e+01    1.07580046e+02
angle_coeff 227 harmonic    4.63000000e+01    1.09800047e+02
angle_coeff 228 harmonic    6.54000000e+01    1.08610046e+02
angle_coeff 229 harmonic    1.63000000e+01    1.08190046e+02
angle_coeff 230 harmonic    6.54000000e+01    1.08610046e+02
angle_coeff 231 harmonic    4.32000000e+01    1.07150046e+02
angle_coeff 232 harmonic    4.32000000e+01    1.07150046e+02
angle_coeff 233 harmonic    6.59000000e+01    1.19630051e+02
angle_coeff 234 harmonic    7.08000000e+01    1.19100051e+02
angle_coeff 235 harmonic    7.36000000e+01    1.20050052e+02
angle_coeff 236 harmonic    7.08000000e+01    1.19100051e+02
angle_coeff 237 harmonic    7.03000000e+01    1.09650047e+02
angle_coeff 238 harmonic    6.41000000e+01    1.02190044e+02
angle_coeff 239 harmonic    7.03000000e+01    1.09650047e+02
angle_coeff 240 harmonic    6.31000000e+01    1.09680047e+02
angle_coeff 241 harmonic    6.31000000e+01    1.09680047e+02
angle_coeff 242 harmonic    6.31000000e+01    1.09680047e+02
angle_coeff 243 harmonic    6.54000000e+01    1.07850047e+02
angle_coeff 244 harmonic    7.25000000e+01    1.21410052e+02
angle_coeff 245 harmonic    6.54000000e+01    1.07850047e+02
angle_coeff 246 harmonic    7.09000000e+01    1.07360046e+02
angle_coeff 247 harmonic    7.09000000e+01    1.07360046e+02
angle_coeff 248 harmonic    7.09000000e+01    1.07360046e+02
angle_coeff 249 harmonic    3.92000000e+01    1.08460047e+02
angle_coeff 250 harmonic    3.92000000e+01    1.08460047e+02
angle_coeff 251 harmonic    6.29000000e+01    1.11510048e+02
angle_coeff 252 harmonic    3.94000000e+01    1.07580046e+02
angle_coeff 253 harmonic    3.94000000e+01    1.07580046e+02
angle_coeff 254 harmonic    3.94000000e+01    1.07580046e+02
angle_coeff 255 harmonic    6.33000000e+01    1.11040048e+02
angle_coeff 256 harmonic    6.29000000e+01    1.11510048e+02
angle_coeff 257 harmonic    6.29000000e+01    1.11510048e+02
angle_coeff 258 harmonic    3.94000000e+01    1.07580046e+02
angle_coeff 259 harmonic    4.63000000e+01    1.09800047e+02
angle_coeff 260 harmonic    4.63000000e+01    1.09800047e+02
angle_coeff 261 harmonic    6.74000000e+01    1.23200053e+02
angle_coeff 262 harmonic    6.89000000e+01    1.10720048e+02
angle_coeff 263 harmonic    4.63000000e+01    1.09800047e+02
angle_coeff 264 harmonic    4.63000000e+01    1.09800047e+02
angle_coeff 265 harmonic    4.63000000e+01    1.09800047e+02
angle_coeff 266 harmonic    4.63000000e+01    1.09800047e+02
angle_coeff 267 harmonic    4.63000000e+01    1.09800047e+02
angle_coeff 268 harmonic    6.29000000e+01    1.11510048e+02
angle_coeff 269 harmonic    6.33000000e+01    1.11040048e+02
angle_coeff 270 harmonic    6.33000000e+01    1.11040048e+02
angle_coeff 271 harmonic    6.33000000e+01    1.15980050e+02
angle_coeff 272 harmonic    7.53000000e+01    1.23250052e+02
angle_coeff 273 harmonic    6.80000000e+01    1.07970046e+02
angle_coeff 274 harmonic    5.08000000e+01    1.09780047e+02
angle_coeff 275 harmonic    5.08000000e+01    1.09780047e+02
angle_coeff 276 harmonic    4.62000000e+01    1.10560047e+02
angle_coeff 277 harmonic    6.42000000e+01    1.14210049e+02
angle_coeff 278 harmonic    4.62000000e+01    1.10560047e+02
angle_coeff 279 harmonic    4.64000000e+01    1.09560047e+02
angle_coeff 280 harmonic    4.64000000e+01    1.09560047e+02
angle_coeff 281 harmonic    6.26000000e+01    1.09660047e+02
angle_coeff 282 harmonic    6.26000000e+01    1.09660047e+02
angle_coeff 283 harmonic    6.26000000e+01    1.09660047e+02
angle_coeff 284 harmonic    4.86000000e+01    1.08010046e+02
angle_coeff 285 harmonic    3.92000000e+01    1.09750047e+02
angle_coeff 286 harmonic    4.86000000e+01    1.08010046e+02
angle_coeff 287 harmonic    4.86000000e+01    1.08010046e+02
angle_coeff 288 harmonic    4.86000000e+01    1.08010046e+02
angle_coeff 289 harmonic    4.86000000e+01    1.08010046e+02
angle_coeff 290 harmonic    4.86000000e+01    1.08010046e+02
angle_coeff 291 harmonic    4.86000000e+01    1.08010046e+02
angle_coeff 292 harmonic    4.86000000e+01    1.08010046e+02
angle_coeff 293 harmonic    4.86000000e+01    1.08010046e+02
angle_coeff 294 harmonic    4.86000000e+01    1.08010046e+02
angle_coeff 295 harmonic    4.86000000e+01    1.08010046e+02
angle_coeff 296 harmonic    6.26000000e+01    1.09660047e+02
angle_coeff 297 harmonic    6.26000000e+01    1.09660047e+02
angle_coeff 298 harmonic    3.92000000e+01    1.09750047e+02
angle_coeff 299 harmonic    3.92000000e+01    1.09750047e+02
angle_coeff 300 harmonic    3.92000000e+01    1.09750047e+02
angle_coeff 301 harmonic    6.26000000e+01    1.09660047e+02
angle_coeff 302 harmonic    3.92000000e+01    1.09750047e+02
angle_coeff 303 harmonic    3.92000000e+01    1.09750047e+02
angle_coeff 304 harmonic    3.92000000e+01    1.09750047e+02
angle_coeff 305 harmonic    3.92000000e+01    1.09750047e+02
angle_coeff 306 harmonic    3.92000000e+01    1.09750047e+02
angle_coeff 307 harmonic    3.92000000e+01    1.09750047e+02
angle_coeff 308 harmonic    3.92000000e+01    1.08460047e+02
angle_coeff 309 harmonic    6.29000000e+01    1.11510048e+02
angle_coeff 310 harmonic    3.94000000e+01    1.07580046e+02
angle_coeff 311 harmonic    3.94000000e+01    1.07580046e+02
angle_coeff 312 harmonic    3.94000000e+01    1.07580046e+02
angle_coeff 313 harmonic    6.33000000e+01    1.11040048e+02
angle_coeff 314 harmonic    6.29000000e+01    1.11510048e+02
angle_coeff 315 harmonic    6.29000000e+01    1.11510048e+02
angle_coeff 316 harmonic    3.94000000e+01    1.07580046e+02
angle_coeff 317 harmonic    4.63000000e+01    1.09800047e+02
angle_coeff 318 harmonic    4.63000000e+01    1.09800047e+02
angle_coeff 319 harmonic    6.89000000e+01    1.10720048e+02
angle_coeff 320 harmonic    6.74000000e+01    1.23200053e+02
angle_coeff 321 harmonic    4.63000000e+01    1.09800047e+02
angle_coeff 322 harmonic    4.63000000e+01    1.09800047e+02
angle_coeff 323 harmonic    4.63000000e+01    1.09800047e+02
angle_coeff 324 harmonic    4.63000000e+01    1.09800047e+02
angle_coeff 325 harmonic    4.63000000e+01    1.09800047e+02
angle_coeff 326 harmonic    6.29000000e+01    1.11510048e+02
angle_coeff 327 harmonic    6.33000000e+01    1.11040048e+02
angle_coeff 328 harmonic    6.33000000e+01    1.11040048e+02
angle_coeff 329 harmonic    6.33000000e+01    1.15980050e+02
angle_coeff 330 harmonic    7.53000000e+01    1.23250052e+02
angle_coeff 331 harmonic    6.80000000e+01    1.07970046e+02
angle_coeff 332 harmonic    5.08000000e+01    1.09780047e+02
angle_coeff 333 harmonic    5.08000000e+01    1.09780047e+02
angle_coeff 334 harmonic    4.63000000e+01    1.09800047e+02
angle_coeff 335 harmonic    6.29000000e+01    1.11510048e+02
angle_coeff 336 harmonic    4.63000000e+01    1.09800047e+02
angle_coeff 337 harmonic    4.64000000e+01    1.09560047e+02
angle_coeff 338 harmonic    4.64000000e+01    1.09560047e+02
angle_coeff 339 harmonic    6.21000000e+01    1.10220048e+02
angle_coeff 340 harmonic    4.64000000e+01    1.09560047e+02
angle_coeff 341 harmonic    4.64000000e+01    1.09560047e+02
angle_coeff 342 harmonic    4.63000000e+01    1.09800047e+02
angle_coeff 343 harmonic    3.94000000e+01    1.07580046e+02
angle_coeff 344 harmonic    4.63000000e+01    1.09800047e+02
angle_coeff 345 harmonic    6.54000000e+01    1.08610046e+02
angle_coeff 346 harmonic    1.63000000e+01    1.08190046e+02
angle_coeff 347 harmonic    6.54000000e+01    1.08610046e+02
angle_coeff 348 harmonic    4.32000000e+01    1.07150046e+02
angle_coeff 349 harmonic    4.32000000e+01    1.07150046e+02
angle_coeff 350 harmonic    6.59000000e+01    1.19630051e+02
angle_coeff 351 harmonic    7.08000000e+01    1.19100051e+02
angle_coeff 352 harmonic    7.36000000e+01    1.20050052e+02
angle_coeff 353 harmonic    7.08000000e+01    1.19100051e+02
angle_coeff 354 harmonic    7.03000000e+01    1.09650047e+02
angle_coeff 355 harmonic    6.41000000e+01    1.02190044e+02
angle_coeff 356 harmonic    7.03000000e+01    1.09650047e+02
angle_coeff 357 harmonic    6.31000000e+01    1.09680047e+02
angle_coeff 358 harmonic    6.31000000e+01    1.09680047e+02
angle_coeff 359 harmonic    6.31000000e+01    1.09680047e+02
angle_coeff 360 harmonic    6.54000000e+01    1.07850047e+02
angle_coeff 361 harmonic    7.25000000e+01    1.21410052e+02
angle_coeff 362 harmonic    6.54000000e+01    1.07850047e+02
angle_coeff 363 harmonic    7.09000000e+01    1.07360046e+02
angle_coeff 364 harmonic    7.09000000e+01    1.07360046e+02
angle_coeff 365 harmonic    7.09000000e+01    1.07360046e+02
angle_coeff 366 harmonic    3.92000000e+01    1.08460047e+02
angle_coeff 367 harmonic    3.92000000e+01    1.08460047e+02
angle_coeff 368 harmonic    6.29000000e+01    1.11510048e+02
angle_coeff 369 harmonic    3.94000000e+01    1.07580046e+02
angle_coeff 370 harmonic    3.94000000e+01    1.07580046e+02
angle_coeff 371 harmonic    3.94000000e+01    1.07580046e+02
angle_coeff 372 harmonic    6.33000000e+01    1.11040048e+02
angle_coeff 373 harmonic    6.29000000e+01    1.11510048e+02
angle_coeff 374 harmonic    6.29000000e+01    1.11510048e+02
angle_coeff 375 harmonic    3.94000000e+01    1.07580046e+02
angle_coeff 376 harmonic    4.63000000e+01    1.09800047e+02
angle_coeff 377 harmonic    4.63000000e+01    1.09800047e+02
angle_coeff 378 harmonic    6.74000000e+01    1.23200053e+02
angle_coeff 379 harmonic    6.89000000e+01    1.10720048e+02
angle_coeff 380 harmonic    4.63000000e+01    1.09800047e+02
angle_coeff 381 harmonic    4.63000000e+01    1.09800047e+02
angle_coeff 382 harmonic    4.63000000e+01    1.09800047e+02
angle_coeff 383 harmonic    4.63000000e+01    1.09800047e+02
angle_coeff 384 harmonic    4.63000000e+01    1.09800047e+02
angle_coeff 385 harmonic    6.29000000e+01    1.11510048e+02
angle_coeff 386 harmonic    6.33000000e+01    1.11040048e+02
angle_coeff 387 harmonic    6.33000000e+01    1.11040048e+02
angle_coeff 388 harmonic    6.33000000e+01    1.15980050e+02
angle_coeff 389 harmonic    7.53000000e+01    1.23250052e+02
angle_coeff 390 harmonic    6.80000000e+01    1.07970046e+02
angle_coeff 391 harmonic    5.08000000e+01    1.09780047e+02
angle_coeff 392 harmonic    5.08000000e+01    1.09780047e+02
angle_coeff 393 harmonic    4.62000000e+01    1.10560047e+02
angle_coeff 394 harmonic    6.42000000e+01    1.14210049e+02
angle_coeff 395 harmonic    4.62000000e+01    1.10560047e+02
angle_coeff 396 harmonic    4.64000000e+01    1.09560047e+02
angle_coeff 397 harmonic    4.64000000e+01    1.09560047e+02
angle_coeff 398 harmonic    6.26000000e+01    1.09660047e+02
angle_coeff 399 harmonic    6.26000000e+01    1.09660047e+02
angle_coeff 400 harmonic    6.26000000e+01    1.09660047e+02
angle_coeff 401 harmonic    4.86000000e+01    1.08010046e+02
angle_coeff 402 harmonic    3.92000000e+01    1.09750047e+02
angle_coeff 403 harmonic    4.86000000e+01    1.08010046e+02
angle_coeff 404 harmonic    4.86000000e+01    1.08010046e+02
angle_coeff 405 harmonic    4.86000000e+01    1.08010046e+02
angle_coeff 406 harmonic    4.86000000e+01    1.08010046e+02
angle_coeff 407 harmonic    4.86000000e+01    1.08010046e+02
angle_coeff 408 harmonic    4.86000000e+01    1.08010046e+02
angle_coeff 409 harmonic    4.86000000e+01    1.08010046e+02
angle_coeff 410 harmonic    4.86000000e+01    1.08010046e+02
angle_coeff 411 harmonic    4.86000000e+01    1.08010046e+02
angle_coeff 412 harmonic    4.86000000e+01    1.08010046e+02
angle_coeff 413 harmonic    6.26000000e+01    1.09660047e+02
angle_coeff 414 harmonic    6.26000000e+01    1.09660047e+02
angle_coeff 415 harmonic    3.92000000e+01    1.09750047e+02
angle_coeff 416 harmonic    3.92000000e+01    1.09750047e+02
angle_coeff 417 harmonic    3.92000000e+01    1.09750047e+02
angle_coeff 418 harmonic    6.26000000e+01    1.09660047e+02
angle_coeff 419 harmonic    3.92000000e+01    1.09750047e+02
angle_coeff 420 harmonic    3.92000000e+01    1.09750047e+02
angle_coeff 421 harmonic    3.92000000e+01    1.09750047e+02
angle_coeff 422 harmonic    3.92000000e+01    1.09750047e+02
angle_coeff 423 harmonic    3.92000000e+01    1.09750047e+02
angle_coeff 424 harmonic    3.92000000e+01    1.09750047e+02
angle_coeff 425 harmonic    3.92000000e+01    1.08460047e+02
angle_coeff 426 harmonic    6.29000000e+01    1.11510048e+02
angle_coeff 427 harmonic    3.94000000e+01    1.07580046e+02
angle_coeff 428 harmonic    3.94000000e+01    1.07580046e+02
angle_coeff 429 harmonic    3.94000000e+01    1.07580046e+02
angle_coeff 430 harmonic    6.33000000e+01    1.11040048e+02
angle_coeff 431 harmonic    6.29000000e+01    1.11510048e+02
angle_coeff 432 harmonic    6.29000000e+01    1.11510048e+02
angle_coeff 433 harmonic    3.94000000e+01    1.07580046e+02
angle_coeff 434 harmonic    4.63000000e+01    1.09800047e+02
angle_coeff 435 harmonic    4.63000000e+01    1.09800047e+02
angle_coeff 436 harmonic    6.89000000e+01    1.10720048e+02
angle_coeff 437 harmonic    6.74000000e+01    1.23200053e+02
angle_coeff 438 harmonic    4.63000000e+01    1.09800047e+02
angle_coeff 439 harmonic    4.63000000e+01    1.09800047e+02
angle_coeff 440 harmonic    4.63000000e+01    1.09800047e+02
angle_coeff 441 harmonic    4.63000000e+01    1.09800047e+02
angle_coeff 442 harmonic    4.63000000e+01    1.09800047e+02
angle_coeff 443 harmonic    6.29000000e+01    1.11510048e+02
angle_coeff 444 harmonic    6.33000000e+01    1.11040048e+02
angle_coeff 445 harmonic    6.33000000e+01    1.11040048e+02
angle_coeff 446 harmonic    6.33000000e+01    1.15980050e+02
angle_coeff 447 harmonic    7.53000000e+01    1.23250052e+02
angle_coeff 448 harmonic    6.80000000e+01    1.07970046e+02
angle_coeff 449 harmonic    5.08000000e+01    1.09780047e+02
angle_coeff 450 harmonic    5.08000000e+01    1.09780047e+02
angle_coeff 451 harmonic    4.63000000e+01    1.09800047e+02
angle_coeff 452 harmonic    6.29000000e+01    1.11510048e+02
angle_coeff 453 harmonic    4.63000000e+01    1.09800047e+02
angle_coeff 454 harmonic    4.64000000e+01    1.09560047e+02
angle_coeff 455 harmonic    4.64000000e+01    1.09560047e+02
angle_coeff 456 harmonic    6.21000000e+01    1.10220048e+02
angle_coeff 457 harmonic    4.64000000e+01    1.09560047e+02
angle_coeff 458 harmonic    4.64000000e+01    1.09560047e+02
angle_coeff 459 harmonic    4.63000000e+01    1.09800047e+02
angle_coeff 460 harmonic    3.94000000e+01    1.07580046e+02
angle_coeff 461 harmonic    4.63000000e+01    1.09800047e+02
angle_coeff 462 harmonic    6.54000000e+01    1.08610046e+02
angle_coeff 463 harmonic    1.63000000e+01    1.08190046e+02
angle_coeff 464 harmonic    6.54000000e+01    1.08610046e+02
angle_coeff 465 harmonic    4.32000000e+01    1.07150046e+02
angle_coeff 466 harmonic    4.32000000e+01    1.07150046e+02
angle_coeff 467 harmonic    6.59000000e+01    1.19630051e+02
angle_coeff 468 harmonic    7.08000000e+01    1.19100051e+02
angle_coeff 469 harmonic    7.36000000e+01    1.20050052e+02
angle_coeff 470 harmonic    7.08000000e+01    1.19100051e+02
angle_coeff 471 harmonic    7.03000000e+01    1.09650047e+02
angle_coeff 472 harmonic    6.41000000e+01    1.02190044e+02
angle_coeff 473 harmonic    7.03000000e+01    1.09650047e+02
angle_coeff 474 harmonic    6.31000000e+01    1.09680047e+02
angle_coeff 475 harmonic    6.31000000e+01    1.09680047e+02
angle_coeff 476 harmonic    6.31000000e+01    1.09680047e+02
angle_coeff 477 harmonic    6.54000000e+01    1.07850047e+02
angle_coeff 478 harmonic    7.25000000e+01    1.21410052e+02
angle_coeff 479 harmonic    6.54000000e+01    1.07850047e+02
angle_coeff 480 harmonic    7.09000000e+01    1.07360046e+02
angle_coeff 481 harmonic    7.09000000e+01    1.07360046e+02
angle_coeff 482 harmonic    7.09000000e+01    1.07360046e+02
angle_coeff 483 harmonic    3.92000000e+01    1.08460047e+02
angle_coeff 484 harmonic    3.92000000e+01    1.08460047e+02
angle_coeff 485 harmonic    6.29000000e+01    1.11510048e+02
angle_coeff 486 harmonic    3.94000000e+01    1.07580046e+02
angle_coeff 487 harmonic    3.94000000e+01    1.07580046e+02
angle_coeff 488 harmonic    3.94000000e+01    1.07580046e+02
angle_coeff 489 harmonic    6.42000000e+01    1.11710048e+02
angle_coeff 490 harmonic    6.29000000e+01    1.11510048e+02
angle_coeff 491 harmonic    6.29000000e+01    1.11510048e+02
angle_coeff 492 harmonic    3.94000000e+01    1.07580046e+02
angle_coeff 493 harmonic    4.63000000e+01    1.09800047e+02
angle_coeff 494 harmonic    4.63000000e+01    1.09800047e+02
angle_coeff 495 harmonic    5.80000000e+01    1.78580076e+02
angle_coeff 496 harmonic    6.29000000e+01    1.11510048e+02
angle_coeff 497 harmonic    4.63000000e+01    1.09800047e+02
angle_coeff 498 harmonic    4.63000000e+01    1.09800047e+02
angle_coeff 499 harmonic    4.63000000e+01    1.09800047e+02
angle_coeff 500 harmonic    4.63000000e+01    1.09800047e+02
angle_coeff 501 harmonic    4.63000000e+01    1.09800047e+02
angle_coeff 502 harmonic    6.42000000e+01    1.11710048e+02
angle_coeff 503 harmonic    6.42000000e+01    1.11710048e+02
angle_coeff 504 harmonic    6.29000000e+01    1.11510048e+02
angle_coeff 505 harmonic    6.29000000e+01    1.11510048e+02
angle_coeff 506 harmonic    4.63000000e+01    1.09800047e+02
angle_coeff 507 harmonic    4.63000000e+01    1.09800047e+02
angle_coeff 508 harmonic    4.63000000e+01    1.09800047e+02
angle_coeff 509 harmonic    4.63000000e+01    1.09800047e+02
angle_coeff 510 harmonic    6.80000000e+01    1.07970046e+02
angle_coeff 511 harmonic    4.64000000e+01    1.09560047e+02
angle_coeff 512 harmonic    4.64000000e+01    1.09560047e+02
angle_coeff 513 harmonic    4.63000000e+01    1.09800047e+02
angle_coeff 514 harmonic    4.63000000e+01    1.09800047e+02
angle_coeff 515 harmonic    6.27000000e+01    1.12480048e+02
angle_coeff 516 harmonic    5.08000000e+01    1.09780047e+02
angle_coeff 517 harmonic    5.08000000e+01    1.09780047e+02
angle_coeff 518 harmonic    5.08000000e+01    1.09780047e+02
angle_coeff 519 harmonic    5.08000000e+01    1.09780047e+02
angle_coeff 520 harmonic    5.08000000e+01    1.09780047e+02
angle_coeff 521 harmonic    3.92000000e+01    1.08460047e+02
angle_coeff 522 harmonic    3.92000000e+01    1.08460047e+02
angle_coeff 523 harmonic    3.92000000e+01    1.08460047e+02
angle_coeff 524 harmonic    3.92000000e+01    1.08460047e+02
angle_coeff 525 harmonic    3.94000000e+01    1.07580046e+02
angle_coeff 526 harmonic    3.94000000e+01    1.07580046e+02
angle_coeff 527 harmonic    3.94000000e+01    1.07580046e+02
angle_coeff 528 harmonic    3.94000000e+01    1.07580046e+02
angle_coeff 529 harmonic    3.94000000e+01    1.07580046e+02
dihedral_coeff 1 charmm    3.62500000e+00         2       180         0
dihedral_coeff 2 charmm    3.62500000e+00         2       180         0
dihedral_coeff 3 charmm    1.10000000e+00         2       180         0
dihedral_coeff 4 charmm    3.62500000e+00         2       180         0
dihedral_coeff 5 charmm    3.62500000e+00         2       180         0
dihedral_coeff 6 charmm    1.00000000e+00         2       180         0
dihedral_coeff 7 charmm    1.00000000e+00         2       180         0
dihedral_coeff 8 charmm    3.62500000e+00         2       180         0
dihedral_coeff 9 charmm    3.62500000e+00         2       180         0
dihedral_coeff 10 charmm    3.62500000e+00         2       180         0
dihedral_coeff 11 charmm    3.62500000e+00         2       180         0
dihedral_coeff 12 charmm    1.10000000e+00         2       180         0
dihedral_coeff 13 charmm    3.62500000e+00         2       180         0
dihedral_coeff 14 charmm    3.62500000e+00         2       180         0
dihedral_coeff 15 charmm    1.10000000e+00         2       180         0
dihedral_coeff 16 charmm    3.62500000e+00         2       180         0
dihedral_coeff 17 charmm    3.62500000e+00         2       180         0
dihedral_coeff 18 charmm    1.10000000e+00         2       180         0
dihedral_coeff 19 charmm    3.62500000e+00         2       180         0
dihedral_coeff 20 charmm    1.00000000e+00         2       180         0
dihedral_coeff 21 charmm    1.00000000e+00         2       180         0
dihedral_coeff 22 charmm    3.62500000e+00         2       180         0
dihedral_coeff 23 charmm    3.62500000e+00         2       180         0
dihedral_coeff 24 charmm    3.62500000e+00         2       180         0
dihedral_coeff 25 charmm    3.62500000e+00         2       180         0
dihedral_coeff 26 charmm    3.62500000e+00         2       180         0
dihedral_coeff 27 charmm    3.62500000e+00         2       180         0
dihedral_coeff 28 charmm    3.62500000e+00         2       180         0
dihedral_coeff 29 charmm    1.10000000e+00         2       180         0
dihedral_coeff 30 charmm    3.62500000e+00         2       180         0
dihedral_coeff 31 charmm    3.62500000e+00         2       180         0
dihedral_coeff 32 charmm    3.62500000e+00         2       180         0
dihedral_coeff 33 charmm    3.62500000e+00         2       180         0
dihedral_coeff 34 charmm    3.10000000e+00         2       180         0
dihedral_coeff 35 charmm    1.10000000e+00         2       180         0
dihedral_coeff 36 charmm    1.10000000e+00         2       180         0
dihedral_coeff 37 multi/harmonic    3.33333341e-01   -1.00000002e+00    0.00000000e+00    1.33333337e+00    0.00000000e+00
dihedral_coeff 38 charmm    3.10000000e+00         2       180         0
dihedral_coeff 39 multi/harmonic    1.55555545e-01   -4.66666635e-01    0.00000000e+00    6.22222180e-01    0.00000000e+00
dihedral_coeff 40 multi/harmonic    1.55555545e-01   -4.66666635e-01    0.00000000e+00    6.22222180e-01    0.00000000e+00
dihedral_coeff 41 multi/harmonic    1.55555545e-01   -4.66666635e-01    0.00000000e+00    6.22222180e-01    0.00000000e+00
dihedral_coeff 42 charmm    0.00000000e+00         6       180         0
dihedral_coeff 43 charmm    0.00000000e+00         6       180         0
dihedral_coeff 44 multi/harmonic    1.60000000e-01   -4.80000000e-01    0.00000000e+00    6.40000000e-01    0.00000000e+00
dihedral_coeff 45 multi/harmonic    1.60000000e-01   -4.80000000e-01    0.00000000e+00    6.40000000e-01    0.00000000e+00
dihedral_coeff 46 multi/harmonic    1.60000000e-01   -4.80000000e-01    0.00000000e+00    6.40000000e-01    0.00000000e+00
dihedral_coeff 47 multi/harmonic    1.60000000e-01   -4.80000000e-01    0.00000000e+00    6.40000000e-01    0.00000000e+00
dihedral_coeff 48 multi/harmonic    1.60000000e-01   -4.80000000e-01    0.00000000e+00    6.40000000e-01    0.00000000e+00
dihedral_coeff 49 charmm    2.00000000e-01         1       180         0
dihedral_coeff 50 charmm    2.50000000e-01         2       180         0
dihedral_coeff 51 multi/harmonic    1.80000000e-01   -5.40000000e-01    0.00000000e+00    7.20000000e-01    0.00000000e+00
dihedral_coeff 52 multi/harmonic    0.00000000e+00    0.00000000e+00    0.00000000e+00    0.00000000e+00    0.00000000e+00
dihedral_coeff 53 charmm    2.70000000e+00         2       180         0
dihedral_coeff 54 multi/harmonic    1.15000000e+00   -3.45000000e+00    0.00000000e+00    4.60000000e+00    0.00000000e+00
dihedral_coeff 55 charmm    1.10000000e+00         2       180         0
dihedral_coeff 56 multi/harmonic    1.55555545e-01   -4.66666635e-01    0.00000000e+00    6.22222180e-01    0.00000000e+00
dihedral_coeff 57 charmm    2.00000000e-01         1       180         0
dihedral_coeff 58 charmm    2.50000000e-01         2       180         0
dihedral_coeff 59 multi/harmonic    1.80000000e-01   -5.40000000e-01    0.00000000e+00    7.20000000e-01    0.00000000e+00
dihedral_coeff 60 charmm    2.00000000e-01         1       180         0
dihedral_coeff 61 charmm    2.50000000e-01         2       180         0
dihedral_coeff 62 multi/harmonic    1.80000000e-01   -5.40000000e-01    0.00000000e+00    7.20000000e-01    0.00000000e+00
dihedral_coeff 63 multi/harmonic    1.55555545e-01   -4.66666635e-01    0.00000000e+00    6.22222180e-01    0.00000000e+00
dihedral_coeff 64 multi/harmonic    1.55555545e-01   -4.66666635e-01    0.00000000e+00    6.22222180e-01    0.00000000e+00
dihedral_coeff 65 multi/harmonic    1.55555545e-01   -4.66666635e-01    0.00000000e+00    6.22222180e-01    0.00000000e+00
dihedral_coeff 66 multi/harmonic    1.55555545e-01   -4.66666635e-01    0.00000000e+00    6.22222180e-01    0.00000000e+00
dihedral_coeff 67 multi/harmonic    1.55555545e-01   -4.66666635e-01    0.00000000e+00    6.22222180e-01    0.00000000e+00
dihedral_coeff 68 multi/harmonic    1.55555545e-01   -4.66666635e-01    0.00000000e+00    6.22222180e-01    0.00000000e+00
dihedral_coeff 69 charmm    8.00000000e-01         1       180         0
dihedral_coeff 70 multi/harmonic    3.83000000e-01   -1.14900000e+00    0.00000000e+00    1.53200000e+00    0.00000000e+00
dihedral_coeff 71 multi/harmonic    3.83333341e-01   -1.15000002e+00    0.00000000e+00    1.53333337e+00    0.00000000e+00
dihedral_coeff 72 multi/harmonic    3.83333341e-01   -1.15000002e+00    0.00000000e+00    1.53333337e+00    0.00000000e+00
dihedral_coeff 73 charmm    0.00000000e+00         6       180         0
dihedral_coeff 74 charmm    0.00000000e+00         6       180         0
dihedral_coeff 75 charmm    1.40000000e+00         1       180         0
dihedral_coeff 76 charmm    2.70000000e+00         2       180         0
dihedral_coeff 77 charmm    0.00000000e+00         6       180         0
dihedral_coeff 78 charmm    0.00000000e+00         6       180         0
dihedral_coeff 79 multi/harmonic    1.55555545e-01   -4.66666635e-01    0.00000000e+00    6.22222180e-01    0.00000000e+00
dihedral_coeff 80 multi/harmonic    1.55555545e-01   -4.66666635e-01    0.00000000e+00    6.22222180e-01    0.00000000e+00
dihedral_coeff 81 multi/harmonic    1.55555545e-01   -4.66666635e-01    0.00000000e+00    6.22222180e-01    0.00000000e+00
dihedral_coeff 82 multi/harmonic    1.55555545e-01   -4.66666635e-01    0.00000000e+00    6.22222180e-01    0.00000000e+00
dihedral_coeff 83 multi/harmonic    1.55555545e-01   -4.66666635e-01    0.00000000e+00    6.22222180e-01    0.00000000e+00
dihedral_coeff 84 multi/harmonic    1.55555545e-01   -4.66666635e-01    0.00000000e+00    6.22222180e-01    0.00000000e+00
dihedral_coeff 85 multi/harmonic    1.55555545e-01   -4.66666635e-01    0.00000000e+00    6.22222180e-01    0.00000000e+00
dihedral_coeff 86 multi/harmonic    1.55555545e-01   -4.66666635e-01    0.00000000e+00    6.22222180e-01    0.00000000e+00
dihedral_coeff 87 multi/harmonic    1.55555545e-01   -4.66666635e-01    0.00000000e+00    6.22222180e-01    0.00000000e+00
dihedral_coeff 88 multi/harmonic    1.55555545e-01   -4.66666635e-01    0.00000000e+00    6.22222180e-01    0.00000000e+00
dihedral_coeff 89 multi/harmonic    1.55555545e-01   -4.66666635e-01    0.00000000e+00    6.22222180e-01    0.00000000e+00
dihedral_coeff 90 multi/harmonic    1.55555545e-01   -4.66666635e-01    0.00000000e+00    6.22222180e-01    0.00000000e+00
dihedral_coeff 91 multi/harmonic    1.55555545e-01   -4.66666635e-01    0.00000000e+00    6.22222180e-01    0.00000000e+00
dihedral_coeff 92 multi/harmonic    1.55555545e-01   -4.66666635e-01    0.00000000e+00    6.22222180e-01    0.00000000e+00
dihedral_coeff 93 multi/harmonic    1.55555545e-01   -4.66666635e-01    0.00000000e+00    6.22222180e-01    0.00000000e+00
dihedral_coeff 94 multi/harmonic    1.55555545e-01   -4.66666635e-01    0.00000000e+00    6.22222180e-01    0.00000000e+00
dihedral_coeff 95 multi/harmonic    1.55555545e-01   -4.66666635e-01    0.00000000e+00    6.22222180e-01    0.00000000e+00
dihedral_coeff 96 multi/harmonic    1.55555545e-01   -4.66666635e-01    0.00000000e+00    6.22222180e-01    0.00000000e+00
dihedral_coeff 97 multi/harmonic    1.55555545e-01   -4.66666635e-01    0.00000000e+00    6.22222180e-01    0.00000000e+00
dihedral_coeff 98 multi/harmonic    1.55555545e-01   -4.66666635e-01    0.00000000e+00    6.22222180e-01    0.00000000e+00
dihedral_coeff 99 multi/harmonic    1.55555545e-01   -4.66666635e-01    0.00000000e+00    6.22222180e-01    0.00000000e+00
dihedral_coeff 100 multi/harmonic    1.55555545e-01   -4.66666635e-01    0.00000000e+00    6.22222180e-01    0.00000000e+00
dihedral_coeff 101 multi/harmonic    1.55555545e-01   -4.66666635e-01    0.00000000e+00    6.22222180e-01    0.00000000e+00
dihedral_coeff 102 multi/harmonic    1.55555545e-01   -4.66666635e-01    0.00000000e+00    6.22222180e-01    0.00000000e+00
dihedral_coeff 103 multi/harmonic    1.55555545e-01   -4.66666635e-01    0.00000000e+00    6.22222180e-01    0.00000000e+00
dihedral_coeff 104 multi/harmonic    1.55555545e-01   -4.66666635e-01    0.00000000e+00    6.22222180e-01    0.00000000e+00
dihedral_coeff 105 multi/harmonic    1.55555545e-01   -4.66666635e-01    0.00000000e+00    6.22222180e-01    0.00000000e+00
dihedral_coeff 106 multi/harmonic    1.55555545e-01   -4.66666635e-01    0.00000000e+00    6.22222180e-01    0.00000000e+00
dihedral_coeff 107 multi/harmonic    1.55555545e-01   -4.66666635e-01    0.00000000e+00    6.22222180e-01    0.00000000e+00
dihedral_coeff 108 multi/harmonic    1.55555545e-01   -4.66666635e-01    0.00000000e+00    6.22222180e-01    0.00000000e+00
dihedral_coeff 109 multi/harmonic    1.55555545e-01   -4.66666635e-01    0.00000000e+00    6.22222180e-01    0.00000000e+00
dihedral_coeff 110 multi/harmonic    1.55555545e-01   -4.66666635e-01    0.00000000e+00    6.22222180e-01    0.00000000e+00
dihedral_coeff 111 multi/harmonic    1.55555545e-01   -4.66666635e-01    0.00000000e+00    6.22222180e-01    0.00000000e+00
dihedral_coeff 112 multi/harmonic    1.55555545e-01   -4.66666635e-01    0.00000000e+00    6.22222180e-01    0.00000000e+00
dihedral_coeff 113 multi/harmonic    1.55555545e-01   -4.66666635e-01    0.00000000e+00    6.22222180e-01    0.00000000e+00
dihedral_coeff 114 multi/harmonic    1.55555545e-01   -4.66666635e-01    0.00000000e+00    6.22222180e-01    0.00000000e+00
dihedral_coeff 115 multi/harmonic    1.55555545e-01   -4.66666635e-01    0.00000000e+00    6.22222180e-01    0.00000000e+00
dihedral_coeff 116 multi/harmonic    1.55555545e-01   -4.66666635e-01    0.00000000e+00    6.22222180e-01    0.00000000e+00
dihedral_coeff 117 multi/harmonic    1.55555545e-01   -4.66666635e-01    0.00000000e+00    6.22222180e-01    0.00000000e+00
dihedral_coeff 118 multi/harmonic    1.55555545e-01   -4.66666635e-01    0.00000000e+00    6.22222180e-01    0.00000000e+00
dihedral_coeff 119 multi/harmonic    1.55555545e-01   -4.66666635e-01    0.00000000e+00    6.22222180e-01    0.00000000e+00
dihedral_coeff 120 multi/harmonic    1.55555545e-01   -4.66666635e-01    0.00000000e+00    6.22222180e-01    0.00000000e+00
dihedral_coeff 121 multi/harmonic    1.55555545e-01   -4.66666635e-01    0.00000000e+00    6.22222180e-01    0.00000000e+00
dihedral_coeff 122 multi/harmonic    1.55555545e-01   -4.66666635e-01    0.00000000e+00    6.22222180e-01    0.00000000e+00
dihedral_coeff 123 multi/harmonic    1.55555545e-01   -4.66666635e-01    0.00000000e+00    6.22222180e-01    0.00000000e+00
dihedral_coeff 124 multi/harmonic    1.60000000e-01   -4.80000000e-01    0.00000000e+00    6.40000000e-01    0.00000000e+00
dihedral_coeff 125 multi/harmonic    1.60000000e-01   -4.80000000e-01    0.00000000e+00    6.40000000e-01    0.00000000e+00
dihedral_coeff 126 charmm    2.00000000e-01         1       180         0
dihedral_coeff 127 charmm    2.50000000e-01         2       180         0
dihedral_coeff 128 multi/harmonic    1.80000000e-01   -5.40000000e-01    0.00000000e+00    7.20000000e-01    0.00000000e+00
dihedral_coeff 129 multi/harmonic    1.60000000e-01   -4.80000000e-01    0.00000000e+00    6.40000000e-01    0.00000000e+00
dihedral_coeff 130 multi/harmonic    1.60000000e-01   -4.80000000e-01    0.00000000e+00    6.40000000e-01    0.00000000e+00
dihedral_coeff 131 multi/harmonic    1.60000000e-01   -4.80000000e-01    0.00000000e+00    6.40000000e-01    0.00000000e+00
dihedral_coeff 132 charmm    0.00000000e+00         6       180         0
dihedral_coeff 133 charmm    0.00000000e+00         6       180         0
dihedral_coeff 134 multi/harmonic    1.60000000e-01   -4.80000000e-01    0.00000000e+00    6.40000000e-01    0.00000000e+00
dihedral_coeff 135 multi/harmonic    1.60000000e-01   -4.80000000e-01    0.00000000e+00    6.40000000e-01    0.00000000e+00
dihedral_coeff 136 multi/harmonic    1.60000000e-01   -4.80000000e-01    0.00000000e+00    6.40000000e-01    0.00000000e+00
dihedral_coeff 137 multi/harmonic    1.60000000e-01   -4.80000000e-01    0.00000000e+00    6.40000000e-01    0.00000000e+00
dihedral_coeff 138 multi/harmonic    1.60000000e-01   -4.80000000e-01    0.00000000e+00    6.40000000e-01    0.00000000e+00
dihedral_coeff 139 charmm    2.00000000e-01         1       180         0
dihedral_coeff 140 charmm    2.50000000e-01         2       180         0
dihedral_coeff 141 multi/harmonic    1.80000000e-01   -5.40000000e-01    0.00000000e+00    7.20000000e-01    0.00000000e+00
dihedral_coeff 142 multi/harmonic    1.55555545e-01   -4.66666635e-01    0.00000000e+00    6.22222180e-01    0.00000000e+00
dihedral_coeff 143 multi/harmonic    1.60000000e-01   -4.80000000e-01    0.00000000e+00    6.40000000e-01    0.00000000e+00
dihedral_coeff 144 multi/harmonic    1.60000000e-01   -4.80000000e-01    0.00000000e+00    6.40000000e-01    0.00000000e+00
dihedral_coeff 145 multi/harmonic    1.55555545e-01   -4.66666635e-01    0.00000000e+00    6.22222180e-01    0.00000000e+00
dihedral_coeff 146 multi/harmonic    1.60000000e-01   -4.80000000e-01    0.00000000e+00    6.40000000e-01    0.00000000e+00
dihedral_coeff 147 multi/harmonic    1.60000000e-01   -4.80000000e-01    0.00000000e+00    6.40000000e-01    0.00000000e+00
dihedral_coeff 148 multi/harmonic    0.00000000e+00    0.00000000e+00    0.00000000e+00    0.00000000e+00    0.00000000e+00
dihedral_coeff 149 charmm    2.70000000e+00         2       180         0
dihedral_coeff 150 multi/harmonic    1.15000000e+00   -3.45000000e+00    0.00000000e+00    4.60000000e+00    0.00000000e+00
dihedral_coeff 151 charmm    1.10000000e+00         2       180         0
dihedral_coeff 152 multi/harmonic    1.55555545e-01   -4.66666635e-01    0.00000000e+00    6.22222180e-01    0.00000000e+00
dihedral_coeff 153 charmm    2.00000000e-01         1       180         0
dihedral_coeff 154 charmm    2.50000000e-01         2       180         0
dihedral_coeff 155 multi/harmonic    1.80000000e-01   -5.40000000e-01    0.00000000e+00    7.20000000e-01    0.00000000e+00
dihedral_coeff 156 charmm    2.00000000e-01         1       180         0
dihedral_coeff 157 charmm    2.50000000e-01         2       180         0
dihedral_coeff 158 multi/harmonic    1.80000000e-01   -5.40000000e-01    0.00000000e+00    7.20000000e-01    0.00000000e+00
dihedral_coeff 159 multi/harmonic    1.55555545e-01   -4.66666635e-01    0.00000000e+00    6.22222180e-01    0.00000000e+00
dihedral_coeff 160 multi/harmonic    1.55555545e-01   -4.66666635e-01    0.00000000e+00    6.22222180e-01    0.00000000e+00
dihedral_coeff 161 multi/harmonic    1.55555545e-01   -4.66666635e-01    0.00000000e+00    6.22222180e-01    0.00000000e+00
dihedral_coeff 162 multi/harmonic    1.55555545e-01   -4.66666635e-01    0.00000000e+00    6.22222180e-01    0.00000000e+00
dihedral_coeff 163 multi/harmonic    1.55555545e-01   -4.66666635e-01    0.00000000e+00    6.22222180e-01    0.00000000e+00
dihedral_coeff 164 multi/harmonic    1.55555545e-01   -4.66666635e-01    0.00000000e+00    6.22222180e-01    0.00000000e+00
dihedral_coeff 165 charmm    8.00000000e-01         1       180         0
dihedral_coeff 166 multi/harmonic    3.83000000e-01   -1.14900000e+00    0.00000000e+00    1.53200000e+00    0.00000000e+00
dihedral_coeff 167 multi/harmonic    3.83333341e-01   -1.15000002e+00    0.00000000e+00    1.53333337e+00    0.00000000e+00
dihedral_coeff 168 multi/harmonic    3.83333341e-01   -1.15000002e+00    0.00000000e+00    1.53333337e+00    0.00000000e+00
dihedral_coeff 169 charmm    0.00000000e+00         6       180         0
dihedral_coeff 170 charmm    0.00000000e+00         6       180         0
dihedral_coeff 171 multi/harmonic    2.50000000e-01    2.50000000e-01    0.00000000e+00    0.00000000e+00    0.00000000e+00
dihedral_coeff 172 multi/harmonic    0.00000000e+00    0.00000000e+00    0.00000000e+00    0.00000000e+00    0.00000000e+00
dihedral_coeff 173 multi/harmonic    1.55555545e-01   -4.66666635e-01    0.00000000e+00    6.22222180e-01    0.00000000e+00
dihedral_coeff 174 multi/harmonic    2.50000000e-01    2.50000000e-01    0.00000000e+00    0.00000000e+00    0.00000000e+00
dihedral_coeff 175 multi/harmonic    0.00000000e+00    0.00000000e+00    0.00000000e+00    0.00000000e+00    0.00000000e+00
dihedral_coeff 176 charmm    1.40000000e+00         1       180         0
dihedral_coeff 177 charmm    2.70000000e+00         2       180         0
dihedral_coeff 178 multi/harmonic    1.55555545e-01   -4.66666635e-01    0.00000000e+00    6.22222180e-01    0.00000000e+00
dihedral_coeff 179 multi/harmonic    1.55555545e-01   -4.66666635e-01    0.00000000e+00    6.22222180e-01    0.00000000e+00
dihedral_coeff 180 multi/harmonic    1.55555545e-01   -4.66666635e-01    0.00000000e+00    6.22222180e-01    0.00000000e+00
dihedral_coeff 181 multi/harmonic    1.44444455e-01   -4.33333365e-01    0.00000000e+00    5.77777820e-01    0.00000000e+00
dihedral_coeff 182 multi/harmonic    1.44444455e-01   -4.33333365e-01    0.00000000e+00    5.77777820e-01    0.00000000e+00
dihedral_coeff 183 multi/harmonic    1.44444455e-01   -4.33333365e-01    0.00000000e+00    5.77777820e-01    0.00000000e+00
dihedral_coeff 184 multi/harmonic    1.55555545e-01   -4.66666635e-01    0.00000000e+00    6.22222180e-01    0.00000000e+00
dihedral_coeff 185 multi/harmonic    1.55555545e-01   -4.66666635e-01    0.00000000e+00    6.22222180e-01    0.00000000e+00
dihedral_coeff 186 multi/harmonic    1.55555545e-01   -4.66666635e-01    0.00000000e+00    6.22222180e-01    0.00000000e+00
dihedral_coeff 187 multi/harmonic    1.55555545e-01   -4.66666635e-01    0.00000000e+00    6.22222180e-01    0.00000000e+00
dihedral_coeff 188 multi/harmonic    1.55555545e-01   -4.66666635e-01    0.00000000e+00    6.22222180e-01    0.00000000e+00
dihedral_coeff 189 multi/harmonic    1.55555545e-01   -4.66666635e-01    0.00000000e+00    6.22222180e-01    0.00000000e+00
dihedral_coeff 190 multi/harmonic    1.55555545e-01   -4.66666635e-01    0.00000000e+00    6.22222180e-01    0.00000000e+00
dihedral_coeff 191 charmm    6.66666666e+00         2       180         0
dihedral_coeff 192 multi/harmonic    1.55555545e-01   -4.66666635e-01    0.00000000e+00    6.22222180e-01    0.00000000e+00
dihedral_coeff 193 charmm    6.80000000e+00         1       180         0
dihedral_coeff 194 charmm    5.00000000e-01         3       180         0
dihedral_coeff 195 charmm    6.80000000e+00         1       180         0
dihedral_coeff 196 charmm    5.00000000e-01         3       180         0
dihedral_coeff 197 charmm    6.80000000e+00         1       180         0
dihedral_coeff 198 charmm    5.00000000e-01         3       180         0
dihedral_coeff 199 multi/harmonic    1.44444455e-01   -4.33333365e-01    0.00000000e+00    5.77777820e-01    0.00000000e+00
dihedral_coeff 200 multi/harmonic    1.44444455e-01   -4.33333365e-01    0.00000000e+00    5.77777820e-01    0.00000000e+00
dihedral_coeff 201 charmm    6.66666666e+00         2       180         0
dihedral_coeff 202 multi/harmonic    1.44444455e-01   -4.33333365e-01    0.00000000e+00    5.77777820e-01    0.00000000e+00
dihedral_coeff 203 multi/harmonic    1.44444455e-01   -4.33333365e-01    0.00000000e+00    5.77777820e-01    0.00000000e+00
dihedral_coeff 204 multi/harmonic    1.44444455e-01   -4.33333365e-01    0.00000000e+00    5.77777820e-01    0.00000000e+00
dihedral_coeff 205 multi/harmonic    1.44444455e-01   -4.33333365e-01    0.00000000e+00    5.77777820e-01    0.00000000e+00
dihedral_coeff 206 multi/harmonic    1.44444455e-01   -4.33333365e-01    0.00000000e+00    5.77777820e-01    0.00000000e+00
dihedral_coeff 207 charmm    6.66666666e+00         2       180         0
dihedral_coeff 208 multi/harmonic    1.44444455e-01   -4.33333365e-01    0.00000000e+00    5.77777820e-01    0.00000000e+00
dihedral_coeff 209 multi/harmonic    1.44444455e-01   -4.33333365e-01    0.00000000e+00    5.77777820e-01    0.00000000e+00
dihedral_coeff 210 multi/harmonic    1.44444455e-01   -4.33333365e-01    0.00000000e+00    5.77777820e-01    0.00000000e+00
dihedral_coeff 211 multi/harmonic    1.44444455e-01   -4.33333365e-01    0.00000000e+00    5.77777820e-01    0.00000000e+00
dihedral_coeff 212 multi/harmonic    1.44444455e-01   -4.33333365e-01    0.00000000e+00    5.77777820e-01    0.00000000e+00
dihedral_coeff 213 multi/harmonic    1.44444455e-01   -4.33333365e-01    0.00000000e+00    5.77777820e-01    0.00000000e+00
dihedral_coeff 214 multi/harmonic    1.44444455e-01   -4.33333365e-01    0.00000000e+00    5.77777820e-01    0.00000000e+00
dihedral_coeff 215 multi/harmonic    1.44444455e-01   -4.33333365e-01    0.00000000e+00    5.77777820e-01    0.00000000e+00
dihedral_coeff 216 multi/harmonic    1.55555545e-01   -4.66666635e-01    0.00000000e+00    6.22222180e-01    0.00000000e+00
dihedral_coeff 217 multi/harmonic    1.55555545e-01   -4.66666635e-01    0.00000000e+00    6.22222180e-01    0.00000000e+00
dihedral_coeff 218 multi/harmonic    1.55555545e-01   -4.66666635e-01    0.00000000e+00    6.22222180e-01    0.00000000e+00
dihedral_coeff 219 multi/harmonic    1.55555545e-01   -4.66666635e-01    0.00000000e+00    6.22222180e-01    0.00000000e+00
dihedral_coeff 220 charmm    0.00000000e+00         6       180         0
dihedral_coeff 221 charmm    0.00000000e+00         6       180         0
dihedral_coeff 222 multi/harmonic    1.60000000e-01   -4.80000000e-01    0.00000000e+00    6.40000000e-01    0.00000000e+00
dihedral_coeff 223 multi/harmonic    1.60000000e-01   -4.80000000e-01    0.00000000e+00    6.40000000e-01    0.00000000e+00
dihedral_coeff 224 charmm    2.00000000e-01         1       180         0
dihedral_coeff 225 charmm    2.50000000e-01         2       180         0
dihedral_coeff 226 multi/harmonic    1.80000000e-01   -5.40000000e-01    0.00000000e+00    7.20000000e-01    0.00000000e+00
dihedral_coeff 227 multi/harmonic    1.60000000e-01   -4.80000000e-01    0.00000000e+00    6.40000000e-01    0.00000000e+00
dihedral_coeff 228 multi/harmonic    1.60000000e-01   -4.80000000e-01    0.00000000e+00    6.40000000e-01    0.00000000e+00
dihedral_coeff 229 multi/harmonic    1.60000000e-01   -4.80000000e-01    0.00000000e+00    6.40000000e-01    0.00000000e+00
dihedral_coeff 230 charmm    0.00000000e+00         6       180         0
dihedral_coeff 231 charmm    0.00000000e+00         6       180         0
dihedral_coeff 232 multi/harmonic    1.60000000e-01   -4.80000000e-01    0.00000000e+00    6.40000000e-01    0.00000000e+00
dihedral_coeff 233 multi/harmonic    1.60000000e-01   -4.80000000e-01    0.00000000e+00    6.40000000e-01    0.00000000e+00
dihedral_coeff 234 multi/harmonic    1.60000000e-01   -4.80000000e-01    0.00000000e+00    6.40000000e-01    0.00000000e+00
dihedral_coeff 235 multi/harmonic    1.60000000e-01   -4.80000000e-01    0.00000000e+00    6.40000000e-01    0.00000000e+00
dihedral_coeff 236 multi/harmonic    1.60000000e-01   -4.80000000e-01    0.00000000e+00    6.40000000e-01    0.00000000e+00
dihedral_coeff 237 charmm    2.00000000e-01         1       180         0
dihedral_coeff 238 charmm    2.50000000e-01         2       180         0
dihedral_coeff 239 multi/harmonic    1.80000000e-01   -5.40000000e-01    0.00000000e+00    7.20000000e-01    0.00000000e+00
dihedral_coeff 240 multi/harmonic    1.55555545e-01   -4.66666635e-01    0.00000000e+00    6.22222180e-01    0.00000000e+00
dihedral_coeff 241 multi/harmonic    1.60000000e-01   -4.80000000e-01    0.00000000e+00    6.40000000e-01    0.00000000e+00
dihedral_coeff 242 multi/harmonic    1.60000000e-01   -4.80000000e-01    0.00000000e+00    6.40000000e-01    0.00000000e+00
dihedral_coeff 243 multi/harmonic    1.55555545e-01   -4.66666635e-01    0.00000000e+00    6.22222180e-01    0.00000000e+00
dihedral_coeff 244 multi/harmonic    1.60000000e-01   -4.80000000e-01    0.00000000e+00    6.40000000e-01    0.00000000e+00
dihedral_coeff 245 multi/harmonic    1.60000000e-01   -4.80000000e-01    0.00000000e+00    6.40000000e-01    0.00000000e+00
dihedral_coeff 246 multi/harmonic    0.00000000e+00    0.00000000e+00    0.00000000e+00    0.00000000e+00    0.00000000e+00
dihedral_coeff 247 charmm    2.70000000e+00         2       180         0
dihedral_coeff 248 multi/harmonic    1.15000000e+00   -3.45000000e+00    0.00000000e+00    4.60000000e+00    0.00000000e+00
dihedral_coeff 249 charmm    1.10000000e+00         2       180         0
dihedral_coeff 250 multi/harmonic    1.55555545e-01   -4.66666635e-01    0.00000000e+00    6.22222180e-01    0.00000000e+00
dihedral_coeff 251 charmm    2.00000000e-01         1       180         0
dihedral_coeff 252 charmm    2.50000000e-01         2       180         0
dihedral_coeff 253 multi/harmonic    1.80000000e-01   -5.40000000e-01    0.00000000e+00    7.20000000e-01    0.00000000e+00
dihedral_coeff 254 charmm    2.00000000e-01         1       180         0
dihedral_coeff 255 charmm    2.50000000e-01         2       180         0
dihedral_coeff 256 multi/harmonic    1.80000000e-01   -5.40000000e-01    0.00000000e+00    7.20000000e-01    0.00000000e+00
dihedral_coeff 257 multi/harmonic    1.55555545e-01   -4.66666635e-01    0.00000000e+00    6.22222180e-01    0.00000000e+00
dihedral_coeff 258 multi/harmonic    1.55555545e-01   -4.66666635e-01    0.00000000e+00    6.22222180e-01    0.00000000e+00
dihedral_coeff 259 multi/harmonic    1.55555545e-01   -4.66666635e-01    0.00000000e+00    6.22222180e-01    0.00000000e+00
dihedral_coeff 260 multi/harmonic    1.55555545e-01   -4.66666635e-01    0.00000000e+00    6.22222180e-01    0.00000000e+00
dihedral_coeff 261 multi/harmonic    1.55555545e-01   -4.66666635e-01    0.00000000e+00    6.22222180e-01    0.00000000e+00
dihedral_coeff 262 multi/harmonic    1.55555545e-01   -4.66666635e-01    0.00000000e+00    6.22222180e-01    0.00000000e+00
dihedral_coeff 263 charmm    8.00000000e-01         1       180         0
dihedral_coeff 264 multi/harmonic    3.83000000e-01   -1.14900000e+00    0.00000000e+00    1.53200000e+00    0.00000000e+00
dihedral_coeff 265 multi/harmonic    3.83333341e-01   -1.15000002e+00    0.00000000e+00    1.53333337e+00    0.00000000e+00
dihedral_coeff 266 multi/harmonic    3.83333341e-01   -1.15000002e+00    0.00000000e+00    1.53333337e+00    0.00000000e+00
dihedral_coeff 267 charmm    0.00000000e+00         6       180         0
dihedral_coeff 268 charmm    0.00000000e+00         6       180         0
dihedral_coeff 269 charmm    1.40000000e+00         1       180         0
dihedral_coeff 270 charmm    2.70000000e+00         2       180         0
dihedral_coeff 271 charmm    0.00000000e+00         6       180         0
dihedral_coeff 272 charmm    0.00000000e+00         6       180         0
dihedral_coeff 273 multi/harmonic    1.55555545e-01   -4.66666635e-01    0.00000000e+00    6.22222180e-01    0.00000000e+00
dihedral_coeff 274 multi/harmonic    1.55555545e-01   -4.66666635e-01    0.00000000e+00    6.22222180e-01    0.00000000e+00
dihedral_coeff 275 multi/harmonic    1.55555545e-01   -4.66666635e-01    0.00000000e+00    6.22222180e-01    0.00000000e+00
dihedral_coeff 276 multi/harmonic    1.55555545e-01   -4.66666635e-01    0.00000000e+00    6.22222180e-01    0.00000000e+00
dihedral_coeff 277 multi/harmonic    1.55555545e-01   -4.66666635e-01    0.00000000e+00    6.22222180e-01    0.00000000e+00
[...]
dihedral_coeff 700 multi/harmonic    1.55555545e-01   -4.66666635e-01    0.00000000e+00    6.22222180e-01    0.00000000e+00
dihedral_coeff 701 multi/harmonic    1.55555545e-01   -4.66666635e-01    0.00000000e+00    6.22222180e-01    0.00000000e+00
dihedral_coeff 702 multi/harmonic    1.55555545e-01   -4.66666635e-01    0.00000000e+00    6.22222180e-01    0.00000000e+00
dihedral_coeff 703 multi/harmonic    1.55555545e-01   -4.66666635e-01    0.00000000e+00    6.22222180e-01    0.00000000e+00
dihedral_coeff 704 multi/harmonic    1.55555545e-01   -4.66666635e-01    0.00000000e+00    6.22222180e-01    0.00000000e+00
dihedral_coeff 705 multi/harmonic    1.55555545e-01   -4.66666635e-01    0.00000000e+00    6.22222180e-01    0.00000000e+00
dihedral_coeff 706 multi/harmonic    1.60000000e-01   -4.80000000e-01    0.00000000e+00    6.40000000e-01    0.00000000e+00
dihedral_coeff 707 multi/harmonic    1.60000000e-01   -4.80000000e-01    0.00000000e+00    6.40000000e-01    0.00000000e+00
dihedral_coeff 708 charmm    2.00000000e-01         1       180         0
dihedral_coeff 709 charmm    2.50000000e-01         2       180         0
dihedral_coeff 710 multi/harmonic    1.80000000e-01   -5.40000000e-01    0.00000000e+00    7.20000000e-01    0.00000000e+00
dihedral_coeff 711 multi/harmonic    1.60000000e-01   -4.80000000e-01    0.00000000e+00    6.40000000e-01    0.00000000e+00
dihedral_coeff 712 multi/harmonic    1.60000000e-01   -4.80000000e-01    0.00000000e+00    6.40000000e-01    0.00000000e+00
dihedral_coeff 713 multi/harmonic    1.60000000e-01   -4.80000000e-01    0.00000000e+00    6.40000000e-01    0.00000000e+00
dihedral_coeff 714 charmm    0.00000000e+00         6       180         0
dihedral_coeff 715 charmm    0.00000000e+00         6       180         0
dihedral_coeff 716 multi/harmonic    1.60000000e-01   -4.80000000e-01    0.00000000e+00    6.40000000e-01    0.00000000e+00
dihedral_coeff 717 multi/harmonic    1.60000000e-01   -4.80000000e-01    0.00000000e+00    6.40000000e-01    0.00000000e+00
dihedral_coeff 718 multi/harmonic    1.60000000e-01   -4.80000000e-01    0.00000000e+00    6.40000000e-01    0.00000000e+00
dihedral_coeff 719 multi/harmonic    1.60000000e-01   -4.80000000e-01    0.00000000e+00    6.40000000e-01    0.00000000e+00
dihedral_coeff 720 multi/harmonic    1.60000000e-01   -4.80000000e-01    0.00000000e+00    6.40000000e-01    0.00000000e+00
dihedral_coeff 721 charmm    2.00000000e-01         1       180         0
dihedral_coeff 722 charmm    2.50000000e-01         2       180         0
dihedral_coeff 723 multi/harmonic    1.80000000e-01   -5.40000000e-01    0.00000000e+00    7.20000000e-01    0.00000000e+00
dihedral_coeff 724 multi/harmonic    1.55555545e-01   -4.66666635e-01    0.00000000e+00    6.22222180e-01    0.00000000e+00
dihedral_coeff 725 multi/harmonic    1.60000000e-01   -4.80000000e-01    0.00000000e+00    6.40000000e-01    0.00000000e+00
dihedral_coeff 726 multi/harmonic    1.60000000e-01   -4.80000000e-01    0.00000000e+00    6.40000000e-01    0.00000000e+00
dihedral_coeff 727 multi/harmonic    1.55555545e-01   -4.66666635e-01    0.00000000e+00    6.22222180e-01    0.00000000e+00
dihedral_coeff 728 multi/harmonic    1.60000000e-01   -4.80000000e-01    0.00000000e+00    6.40000000e-01    0.00000000e+00
dihedral_coeff 729 multi/harmonic    1.60000000e-01   -4.80000000e-01    0.00000000e+00    6.40000000e-01    0.00000000e+00
dihedral_coeff 730 multi/harmonic    0.00000000e+00    0.00000000e+00    0.00000000e+00    0.00000000e+00    0.00000000e+00
dihedral_coeff 731 charmm    2.70000000e+00         2       180         0
dihedral_coeff 732 multi/harmonic    1.15000000e+00   -3.45000000e+00    0.00000000e+00    4.60000000e+00    0.00000000e+00
dihedral_coeff 733 charmm    1.10000000e+00         2       180         0
dihedral_coeff 734 multi/harmonic    1.55555545e-01   -4.66666635e-01    0.00000000e+00    6.22222180e-01    0.00000000e+00
dihedral_coeff 735 charmm    2.00000000e-01         1       180         0
dihedral_coeff 736 charmm    2.50000000e-01         2       180         0
dihedral_coeff 737 multi/harmonic    1.80000000e-01   -5.40000000e-01    0.00000000e+00    7.20000000e-01    0.00000000e+00
dihedral_coeff 738 charmm    2.00000000e-01         1       180         0
dihedral_coeff 739 charmm    2.50000000e-01         2       180         0
dihedral_coeff 740 multi/harmonic    1.80000000e-01   -5.40000000e-01    0.00000000e+00    7.20000000e-01    0.00000000e+00
dihedral_coeff 741 multi/harmonic    1.55555545e-01   -4.66666635e-01    0.00000000e+00    6.22222180e-01    0.00000000e+00
dihedral_coeff 742 multi/harmonic    1.55555545e-01   -4.66666635e-01    0.00000000e+00    6.22222180e-01    0.00000000e+00
dihedral_coeff 743 multi/harmonic    1.55555545e-01   -4.66666635e-01    0.00000000e+00    6.22222180e-01    0.00000000e+00
dihedral_coeff 744 multi/harmonic    1.55555545e-01   -4.66666635e-01    0.00000000e+00    6.22222180e-01    0.00000000e+00
dihedral_coeff 745 multi/harmonic    1.55555545e-01   -4.66666635e-01    0.00000000e+00    6.22222180e-01    0.00000000e+00
dihedral_coeff 746 multi/harmonic    1.55555545e-01   -4.66666635e-01    0.00000000e+00    6.22222180e-01    0.00000000e+00
dihedral_coeff 747 charmm    8.00000000e-01         1       180         0
dihedral_coeff 748 multi/harmonic    3.83000000e-01   -1.14900000e+00    0.00000000e+00    1.53200000e+00    0.00000000e+00
dihedral_coeff 749 multi/harmonic    3.83333341e-01   -1.15000002e+00    0.00000000e+00    1.53333337e+00    0.00000000e+00
dihedral_coeff 750 multi/harmonic    3.83333341e-01   -1.15000002e+00    0.00000000e+00    1.53333337e+00    0.00000000e+00
dihedral_coeff 751 charmm    0.00000000e+00         6       180         0
dihedral_coeff 752 charmm    0.00000000e+00         6       180         0
dihedral_coeff 753 multi/harmonic    2.50000000e-01    2.50000000e-01    0.00000000e+00    0.00000000e+00    0.00000000e+00
dihedral_coeff 754 multi/harmonic    0.00000000e+00    0.00000000e+00    0.00000000e+00    0.00000000e+00    0.00000000e+00
dihedral_coeff 755 multi/harmonic    1.55555545e-01   -4.66666635e-01    0.00000000e+00    6.22222180e-01    0.00000000e+00
dihedral_coeff 756 multi/harmonic    2.50000000e-01    2.50000000e-01    0.00000000e+00    0.00000000e+00    0.00000000e+00
dihedral_coeff 757 multi/harmonic    0.00000000e+00    0.00000000e+00    0.00000000e+00    0.00000000e+00    0.00000000e+00
dihedral_coeff 758 charmm    1.40000000e+00         1       180         0
dihedral_coeff 759 charmm    2.70000000e+00         2       180         0
dihedral_coeff 760 multi/harmonic    1.55555545e-01   -4.66666635e-01    0.00000000e+00    6.22222180e-01    0.00000000e+00
dihedral_coeff 761 multi/harmonic    1.55555545e-01   -4.66666635e-01    0.00000000e+00    6.22222180e-01    0.00000000e+00
dihedral_coeff 762 multi/harmonic    1.55555545e-01   -4.66666635e-01    0.00000000e+00    6.22222180e-01    0.00000000e+00
dihedral_coeff 763 multi/harmonic    1.44444455e-01   -4.33333365e-01    0.00000000e+00    5.77777820e-01    0.00000000e+00
dihedral_coeff 764 multi/harmonic    1.44444455e-01   -4.33333365e-01    0.00000000e+00    5.77777820e-01    0.00000000e+00
dihedral_coeff 765 multi/harmonic    1.44444455e-01   -4.33333365e-01    0.00000000e+00    5.77777820e-01    0.00000000e+00
dihedral_coeff 766 multi/harmonic    1.55555545e-01   -4.66666635e-01    0.00000000e+00    6.22222180e-01    0.00000000e+00
dihedral_coeff 767 multi/harmonic    1.55555545e-01   -4.66666635e-01    0.00000000e+00    6.22222180e-01    0.00000000e+00
dihedral_coeff 768 multi/harmonic    1.55555545e-01   -4.66666635e-01    0.00000000e+00    6.22222180e-01    0.00000000e+00
dihedral_coeff 769 multi/harmonic    1.55555545e-01   -4.66666635e-01    0.00000000e+00    6.22222180e-01    0.00000000e+00
dihedral_coeff 770 multi/harmonic    1.55555545e-01   -4.66666635e-01    0.00000000e+00    6.22222180e-01    0.00000000e+00
dihedral_coeff 771 multi/harmonic    1.55555545e-01   -4.66666635e-01    0.00000000e+00    6.22222180e-01    0.00000000e+00
dihedral_coeff 772 multi/harmonic    1.55555545e-01   -4.66666635e-01    0.00000000e+00    6.22222180e-01    0.00000000e+00
dihedral_coeff 773 charmm    6.66666666e+00         2       180         0
dihedral_coeff 774 multi/harmonic    1.55555545e-01   -4.66666635e-01    0.00000000e+00    6.22222180e-01    0.00000000e+00
dihedral_coeff 775 charmm    6.80000000e+00         1       180         0
dihedral_coeff 776 charmm    5.00000000e-01         3       180         0
dihedral_coeff 777 charmm    6.80000000e+00         1       180         0
dihedral_coeff 778 charmm    5.00000000e-01         3       180         0
dihedral_coeff 779 charmm    6.80000000e+00         1       180         0
dihedral_coeff 780 charmm    5.00000000e-01         3       180         0
dihedral_coeff 781 multi/harmonic    1.44444455e-01   -4.33333365e-01    0.00000000e+00    5.77777820e-01    0.00000000e+00
dihedral_coeff 782 multi/harmonic    1.44444455e-01   -4.33333365e-01    0.00000000e+00    5.77777820e-01    0.00000000e+00
dihedral_coeff 783 charmm    6.66666666e+00         2       180         0
dihedral_coeff 784 multi/harmonic    1.44444455e-01   -4.33333365e-01    0.00000000e+00    5.77777820e-01    0.00000000e+00
dihedral_coeff 785 multi/harmonic    1.44444455e-01   -4.33333365e-01    0.00000000e+00    5.77777820e-01    0.00000000e+00
dihedral_coeff 786 multi/harmonic    1.44444455e-01   -4.33333365e-01    0.00000000e+00    5.77777820e-01    0.00000000e+00
dihedral_coeff 787 multi/harmonic    1.44444455e-01   -4.33333365e-01    0.00000000e+00    5.77777820e-01    0.00000000e+00
dihedral_coeff 788 multi/harmonic    1.44444455e-01   -4.33333365e-01    0.00000000e+00    5.77777820e-01    0.00000000e+00
dihedral_coeff 789 charmm    6.66666666e+00         2       180         0
dihedral_coeff 790 multi/harmonic    1.44444455e-01   -4.33333365e-01    0.00000000e+00    5.77777820e-01    0.00000000e+00
dihedral_coeff 791 multi/harmonic    1.44444455e-01   -4.33333365e-01    0.00000000e+00    5.77777820e-01    0.00000000e+00
dihedral_coeff 792 multi/harmonic    1.44444455e-01   -4.33333365e-01    0.00000000e+00    5.77777820e-01    0.00000000e+00
dihedral_coeff 793 multi/harmonic    1.44444455e-01   -4.33333365e-01    0.00000000e+00    5.77777820e-01    0.00000000e+00
dihedral_coeff 794 multi/harmonic    1.44444455e-01   -4.33333365e-01    0.00000000e+00    5.77777820e-01    0.00000000e+00
dihedral_coeff 795 multi/harmonic    1.44444455e-01   -4.33333365e-01    0.00000000e+00    5.77777820e-01    0.00000000e+00
dihedral_coeff 796 multi/harmonic    1.44444455e-01   -4.33333365e-01    0.00000000e+00    5.77777820e-01    0.00000000e+00
dihedral_coeff 797 multi/harmonic    1.44444455e-01   -4.33333365e-01    0.00000000e+00    5.77777820e-01    0.00000000e+00
dihedral_coeff 798 multi/harmonic    1.55555545e-01   -4.66666635e-01    0.00000000e+00    6.22222180e-01    0.00000000e+00
dihedral_coeff 799 multi/harmonic    1.55555545e-01   -4.66666635e-01    0.00000000e+00    6.22222180e-01    0.00000000e+00
dihedral_coeff 800 multi/harmonic    1.55555545e-01   -4.66666635e-01    0.00000000e+00    6.22222180e-01    0.00000000e+00
dihedral_coeff 801 multi/harmonic    1.55555545e-01   -4.66666635e-01    0.00000000e+00    6.22222180e-01    0.00000000e+00
dihedral_coeff 802 charmm    0.00000000e+00         6       180         0
dihedral_coeff 803 charmm    0.00000000e+00         6       180         0
dihedral_coeff 804 multi/harmonic    1.60000000e-01   -4.80000000e-01    0.00000000e+00    6.40000000e-01    0.00000000e+00
dihedral_coeff 805 multi/harmonic    1.60000000e-01   -4.80000000e-01    0.00000000e+00    6.40000000e-01    0.00000000e+00
dihedral_coeff 806 charmm    2.00000000e-01         1       180         0
dihedral_coeff 807 charmm    2.50000000e-01         2       180         0
dihedral_coeff 808 multi/harmonic    1.80000000e-01   -5.40000000e-01    0.00000000e+00    7.20000000e-01    0.00000000e+00
dihedral_coeff 809 multi/harmonic    1.60000000e-01   -4.80000000e-01    0.00000000e+00    6.40000000e-01    0.00000000e+00
dihedral_coeff 810 multi/harmonic    1.60000000e-01   -4.80000000e-01    0.00000000e+00    6.40000000e-01    0.00000000e+00
dihedral_coeff 811 multi/harmonic    1.60000000e-01   -4.80000000e-01    0.00000000e+00    6.40000000e-01    0.00000000e+00
dihedral_coeff 812 charmm    0.00000000e+00         6       180         0
dihedral_coeff 813 charmm    2.00000000e-01         1       180         0
dihedral_coeff 814 charmm    2.50000000e-01         2       180         0
dihedral_coeff 815 multi/harmonic    1.80000000e-01   -5.40000000e-01    0.00000000e+00    7.20000000e-01    0.00000000e+00
dihedral_coeff 816 multi/harmonic    1.60000000e-01   -4.80000000e-01    0.00000000e+00    6.40000000e-01    0.00000000e+00
dihedral_coeff 817 multi/harmonic    1.60000000e-01   -4.80000000e-01    0.00000000e+00    6.40000000e-01    0.00000000e+00
dihedral_coeff 818 multi/harmonic    1.60000000e-01   -4.80000000e-01    0.00000000e+00    6.40000000e-01    0.00000000e+00
dihedral_coeff 819 multi/harmonic    1.60000000e-01   -4.80000000e-01    0.00000000e+00    6.40000000e-01    0.00000000e+00
dihedral_coeff 820 multi/harmonic    1.60000000e-01   -4.80000000e-01    0.00000000e+00    6.40000000e-01    0.00000000e+00
dihedral_coeff 821 multi/harmonic    1.55555545e-01   -4.66666635e-01    0.00000000e+00    6.22222180e-01    0.00000000e+00
dihedral_coeff 822 multi/harmonic    1.60000000e-01   -4.80000000e-01    0.00000000e+00    6.40000000e-01    0.00000000e+00
dihedral_coeff 823 multi/harmonic    1.60000000e-01   -4.80000000e-01    0.00000000e+00    6.40000000e-01    0.00000000e+00
dihedral_coeff 824 multi/harmonic    1.55555545e-01   -4.66666635e-01    0.00000000e+00    6.22222180e-01    0.00000000e+00
dihedral_coeff 825 multi/harmonic    1.60000000e-01   -4.80000000e-01    0.00000000e+00    6.40000000e-01    0.00000000e+00
dihedral_coeff 826 multi/harmonic    1.60000000e-01   -4.80000000e-01    0.00000000e+00    6.40000000e-01    0.00000000e+00
dihedral_coeff 827 charmm    2.00000000e-01         1       180         0
dihedral_coeff 828 charmm    2.50000000e-01         2       180         0
dihedral_coeff 829 multi/harmonic    1.80000000e-01   -5.40000000e-01    0.00000000e+00    7.20000000e-01    0.00000000e+00
dihedral_coeff 830 multi/harmonic    1.60000000e-01   -4.80000000e-01    0.00000000e+00    6.40000000e-01    0.00000000e+00
dihedral_coeff 831 multi/harmonic    1.60000000e-01   -4.80000000e-01    0.00000000e+00    6.40000000e-01    0.00000000e+00
dihedral_coeff 832 multi/harmonic    1.55555545e-01   -4.66666635e-01    0.00000000e+00    6.22222180e-01    0.00000000e+00
dihedral_coeff 833 multi/harmonic    1.55555545e-01   -4.66666635e-01    0.00000000e+00    6.22222180e-01    0.00000000e+00
dihedral_coeff 834 multi/harmonic    1.55555545e-01   -4.66666635e-01    0.00000000e+00    6.22222180e-01    0.00000000e+00
dihedral_coeff 835 multi/harmonic    1.55555545e-01   -4.66666635e-01    0.00000000e+00    6.22222180e-01    0.00000000e+00
dihedral_coeff 836 multi/harmonic    1.55555545e-01   -4.66666635e-01    0.00000000e+00    6.22222180e-01    0.00000000e+00
dihedral_coeff 837 multi/harmonic    1.55555545e-01   -4.66666635e-01    0.00000000e+00    6.22222180e-01    0.00000000e+00
dihedral_coeff 838 charmm    0.00000000e+00         6       180         0
dihedral_coeff 839 charmm    0.00000000e+00         6       180         0
dihedral_coeff 840 multi/harmonic    1.60000000e-01   -4.80000000e-01    0.00000000e+00    6.40000000e-01    0.00000000e+00
dihedral_coeff 841 multi/harmonic    1.60000000e-01   -4.80000000e-01    0.00000000e+00    6.40000000e-01    0.00000000e+00
dihedral_coeff 842 multi/harmonic    1.60000000e-01   -4.80000000e-01    0.00000000e+00    6.40000000e-01    0.00000000e+00
dihedral_coeff 843 multi/harmonic    1.55555545e-01   -4.66666635e-01    0.00000000e+00    6.22222180e-01    0.00000000e+00
dihedral_coeff 844 multi/harmonic    1.55555545e-01   -4.66666635e-01    0.00000000e+00    6.22222180e-01    0.00000000e+00
dihedral_coeff 845 multi/harmonic    1.55555545e-01   -4.66666635e-01    0.00000000e+00    6.22222180e-01    0.00000000e+00
dihedral_coeff 846 charmm    2.00000000e-01         1       180         0
dihedral_coeff 847 charmm    2.50000000e-01         2       180         0
dihedral_coeff 848 multi/harmonic    1.80000000e-01   -5.40000000e-01    0.00000000e+00    7.20000000e-01    0.00000000e+00
dihedral_coeff 849 charmm    1.00000000e-01         2       180         0
dihedral_coeff 850 multi/harmonic    3.83000000e-01   -1.14900000e+00    0.00000000e+00    1.53200000e+00    0.00000000e+00
dihedral_coeff 851 multi/harmonic    1.60000000e-01   -4.80000000e-01    0.00000000e+00    6.40000000e-01    0.00000000e+00
dihedral_coeff 852 multi/harmonic    1.60000000e-01   -4.80000000e-01    0.00000000e+00    6.40000000e-01    0.00000000e+00
dihedral_coeff 853 multi/harmonic    3.83333341e-01   -1.15000002e+00    0.00000000e+00    1.53333337e+00    0.00000000e+00
dihedral_coeff 854 multi/harmonic    3.83333341e-01   -1.15000002e+00    0.00000000e+00    1.53333337e+00    0.00000000e+00
dihedral_coeff 855 multi/harmonic    3.83333341e-01   -1.15000002e+00    0.00000000e+00    1.53333337e+00    0.00000000e+00
dihedral_coeff 856 multi/harmonic    2.50000000e-01    2.50000000e-01    0.00000000e+00    0.00000000e+00    0.00000000e+00
dihedral_coeff 857 multi/harmonic    0.00000000e+00    0.00000000e+00    0.00000000e+00    0.00000000e+00    0.00000000e+00
dihedral_coeff 858 multi/harmonic    2.50000000e-01    2.50000000e-01    0.00000000e+00    0.00000000e+00    0.00000000e+00
dihedral_coeff 859 multi/harmonic    0.00000000e+00    0.00000000e+00    0.00000000e+00    0.00000000e+00    0.00000000e+00
dihedral_coeff 860 multi/harmonic    3.83333341e-01   -1.15000002e+00    0.00000000e+00    1.53333337e+00    0.00000000e+00
dihedral_coeff 861 multi/harmonic    3.83333341e-01   -1.15000002e+00    0.00000000e+00    1.53333337e+00    0.00000000e+00
dihedral_coeff 862 multi/harmonic    1.55555545e-01   -4.66666635e-01    0.00000000e+00    6.22222180e-01    0.00000000e+00
dihedral_coeff 863 multi/harmonic    1.55555545e-01   -4.66666635e-01    0.00000000e+00    6.22222180e-01    0.00000000e+00
dihedral_coeff 864 multi/harmonic    1.55555545e-01   -4.66666635e-01    0.00000000e+00    6.22222180e-01    0.00000000e+00
dihedral_coeff 865 multi/harmonic    1.55555545e-01   -4.66666635e-01    0.00000000e+00    6.22222180e-01    0.00000000e+00
dihedral_coeff 866 multi/harmonic    1.50000000e-01   -4.50000000e-01    0.00000000e+00    6.00000000e-01    0.00000000e+00
dihedral_coeff 867 multi/harmonic    1.50000000e-01   -4.50000000e-01    0.00000000e+00    6.00000000e-01    0.00000000e+00
dihedral_coeff 868 multi/harmonic    1.50000000e-01   -4.50000000e-01    0.00000000e+00    6.00000000e-01    0.00000000e+00
dihedral_coeff 869 multi/harmonic    1.50000000e-01   -4.50000000e-01    0.00000000e+00    6.00000000e-01    0.00000000e+00
dihedral_coeff 870 multi/harmonic    1.60000000e-01   -4.80000000e-01    0.00000000e+00    6.40000000e-01    0.00000000e+00
dihedral_coeff 871 multi/harmonic    1.60000000e-01   -4.80000000e-01    0.00000000e+00    6.40000000e-01    0.00000000e+00
pair_coeff 1 1   0.0860000   3.3996695
pair_coeff 2 2   0.0150000   2.5996425
pair_coeff 3 3   0.0860000   3.3996695
pair_coeff 4 4   0.2500000   3.5635949
pair_coeff 5 5   0.2500000   3.5635949
pair_coeff 6 6   0.1094000   3.3996695
pair_coeff 7 7   0.2100000   2.9599219
pair_coeff 8 8   0.1700000   3.0000123
pair_coeff 9 9   0.0157000   1.9599772
pair_coeff 10 10   0.1700000   3.2499985
pair_coeff 11 11   0.0157000   2.4713530
pair_coeff 12 12   0.0157000   2.6495328
pair_coeff 13 13   0.2500000   3.5635949
pair_coeff 14 14   0.1700000   3.2499985
pair_coeff 15 15   0.2500000   3.5635949
pair_coeff 16 16   0.0610000   3.1181455
p