LAMMPS (7 Feb 2024 - Development - patch_7Feb2024_update1-147-g4d89741d8c-modified)
  using 1 OpenMP thread(s) per MPI task
# exp: eq
units real
atom_style full

dimension 3
boundary p p p

read_data init.data
Reading data file ...
  orthogonal box = (0 0 0) to (115.12903 115.12903 115.12903)
  2 by 4 by 4 MPI processor grid
  reading atoms ...
  15280 atoms
  scanning bonds ...
  3 = max bonds/atom
  scanning angles ...
  6 = max angles/atom
  scanning dihedrals ...
  21 = max dihedrals/atom
  reading bonds ...
  15280 bonds
  reading angles ...
  29220 angles
  reading dihedrals ...
  48300 dihedrals
Finding 1-2 1-3 1-4 neighbors ...
  special bond factors lj:    0        0        0       
  special bond factors coul:  0        0        0       
     4 = max # of 1-2 neighbors
    12 = max # of 1-3 neighbors
    22 = max # of 1-4 neighbors
    26 = max # of special neighbors
  special bonds CPU = 0.003 seconds
  read_data CPU = 0.302 seconds
include system.ff
bond_style hybrid harmonic
angle_style hybrid harmonic
dihedral_style hybrid charmm multi/harmonic
special_bonds lj 0.0 0.0 0.5 coul 0.0 0.0 0.83333333
Finding 1-2 1-3 1-4 neighbors ...
  special bond factors lj:    0        0        0.5     
  special bond factors coul:  0        0        0.83333333
     4 = max # of 1-2 neighbors
    12 = max # of 1-3 neighbors
    22 = max # of 1-4 neighbors
    26 = max # of special neighbors
  special bonds CPU = 0.003 seconds
pair_style lj/cut/coul/long 9.0 9.0
pair_modify tail yes
kspace_style pppm 1e-8
pair_modify mix arithmetic
mass 1  12.0100000
mass 2   1.0080000
mass 3  12.0100000
mass 4  32.0600000
mass 5  32.0600000
mass 6  12.0100000
mass 7  16.0000000
mass 8  16.0000000
mass 9   1.0080000
mass 10  14.0100000
mass 11   1.0080000
mass 12   1.0080000
mass 13  32.0600000
mass 14  14.0100000
mass 15  32.0600000
mass 16  19.0000000
mass 17  12.0100000
mass 18  14.0100000
bond_coeff 1 harmonic    4.61100000e+02    1.39840000e+00
bond_coeff 2 harmonic    3.45800000e+02    1.08600000e+00
bond_coeff 3 harmonic    4.61100000e+02    1.39840000e+00
bond_coeff 4 harmonic    4.61100000e+02    1.39840000e+00
bond_coeff 5 harmonic    3.45800000e+02    1.08600000e+00
bond_coeff 6 harmonic    4.61100000e+02    1.39840000e+00
bond_coeff 7 harmonic    3.45800000e+02    1.08600000e+00
bond_coeff 8 harmonic    4.61100000e+02    1.39840000e+00
bond_coeff 9 harmonic    3.45800000e+02    1.08600000e+00
bond_coeff 10 harmonic    3.45800000e+02    1.08600000e+00
bond_coeff 11 harmonic    4.61100000e+02    1.39840000e+00
bond_coeff 12 harmonic    3.45900000e+02    1.49060000e+00
bond_coeff 13 harmonic    3.31300000e+02    1.67230000e+00
bond_coeff 14 harmonic    2.37900000e+02    1.80000000e+00
bond_coeff 15 harmonic    2.15900000e+02    1.83920000e+00
bond_coeff 16 harmonic    3.00900000e+02    1.53750000e+00
bond_coeff 17 harmonic    3.13000000e+02    1.52410000e+00
bond_coeff 18 harmonic    3.00900000e+02    1.53750000e+00
bond_coeff 19 harmonic    3.00900000e+02    1.53750000e+00
bond_coeff 20 harmonic    6.37700000e+02    1.21830000e+00
bond_coeff 21 harmonic    3.90800000e+02    1.35840000e+00
bond_coeff 22 harmonic    3.08600000e+02    1.43160000e+00
bond_coeff 23 harmonic    3.00900000e+02    1.53750000e+00
bond_coeff 24 harmonic    3.30600000e+02    1.09690000e+00
bond_coeff 25 harmonic    3.30600000e+02    1.09690000e+00
bond_coeff 26 harmonic    3.38700000e+02    1.09100000e+00
bond_coeff 27 harmonic    2.83300000e+02    1.51100000e+00
bond_coeff 28 harmonic    3.38700000e+02    1.09100000e+00
bond_coeff 29 harmonic    2.83300000e+02    1.51100000e+00
bond_coeff 30 harmonic    2.83300000e+02    1.51100000e+00
bond_coeff 31 harmonic    2.83300000e+02    1.51100000e+00
bond_coeff 32 harmonic    3.38700000e+02    1.09100000e+00
bond_coeff 33 harmonic    3.38700000e+02    1.09100000e+00
bond_coeff 34 harmonic    3.38700000e+02    1.09100000e+00
bond_coeff 35 harmonic    3.38700000e+02    1.09100000e+00
bond_coeff 36 harmonic    3.38700000e+02    1.09100000e+00
bond_coeff 37 harmonic    3.38700000e+02    1.09100000e+00
bond_coeff 38 harmonic    3.38700000e+02    1.09100000e+00
bond_coeff 39 harmonic    3.38700000e+02    1.09100000e+00
bond_coeff 40 harmonic    3.38700000e+02    1.09100000e+00
bond_coeff 41 harmonic    3.30600000e+02    1.09690000e+00
bond_coeff 42 harmonic    3.30600000e+02    1.09690000e+00
bond_coeff 43 harmonic    3.30600000e+02    1.09690000e+00
bond_coeff 44 harmonic    3.30600000e+02    1.09690000e+00
bond_coeff 45 harmonic    3.30600000e+02    1.09690000e+00
bond_coeff 46 harmonic    3.00900000e+02    1.53750000e+00
bond_coeff 47 harmonic    3.13000000e+02    1.52410000e+00
bond_coeff 48 harmonic    3.00900000e+02    1.53750000e+00
bond_coeff 49 harmonic    3.00900000e+02    1.53750000e+00
bond_coeff 50 harmonic    3.90800000e+02    1.35840000e+00
bond_coeff 51 harmonic    6.37700000e+02    1.21830000e+00
bond_coeff 52 harmonic    3.08600000e+02    1.43160000e+00
bond_coeff 53 harmonic    3.00900000e+02    1.53750000e+00
bond_coeff 54 harmonic    3.30600000e+02    1.09690000e+00
bond_coeff 55 harmonic    3.30600000e+02    1.09690000e+00
bond_coeff 56 harmonic    3.30600000e+02    1.09690000e+00
bond_coeff 57 harmonic    3.00900000e+02    1.53750000e+00
bond_coeff 58 harmonic    3.30600000e+02    1.09690000e+00
bond_coeff 59 harmonic    2.33500000e+02    1.80750000e+00
bond_coeff 60 harmonic    3.30600000e+02    1.09690000e+00
bond_coeff 61 harmonic    3.30600000e+02    1.09690000e+00
bond_coeff 62 harmonic    5.12700000e+02    1.45330000e+00
bond_coeff 63 harmonic    3.17100000e+02    1.67200000e+00
bond_coeff 64 harmonic    5.12700000e+02    1.45330000e+00
bond_coeff 65 harmonic    3.17100000e+02    1.67230000e+00
bond_coeff 66 harmonic    4.93000000e+02    1.46600000e+00
bond_coeff 67 harmonic    2.32800000e+02    1.80870000e+00
bond_coeff 68 harmonic    4.93000000e+02    1.46600000e+00
bond_coeff 69 harmonic    3.56900000e+02    1.34970000e+00
bond_coeff 70 harmonic    3.56900000e+02    1.34970000e+00
bond_coeff 71 harmonic    3.56900000e+02    1.34970000e+00
bond_coeff 72 harmonic    3.30600000e+02    1.09690000e+00
bond_coeff 73 harmonic    3.30600000e+02    1.09690000e+00
bond_coeff 74 harmonic    3.30600000e+02    1.09690000e+00
bond_coeff 75 harmonic    3.30600000e+02    1.09690000e+00
bond_coeff 76 harmonic    3.30600000e+02    1.09690000e+00
bond_coeff 77 harmonic    3.00900000e+02    1.53750000e+00
bond_coeff 78 harmonic    3.13000000e+02    1.52410000e+00
bond_coeff 79 harmonic    3.00900000e+02    1.53750000e+00
bond_coeff 80 harmonic    3.00900000e+02    1.53750000e+00
bond_coeff 81 harmonic    6.37700000e+02    1.21830000e+00
bond_coeff 82 harmonic    3.90800000e+02    1.35840000e+00
bond_coeff 83 harmonic    3.08600000e+02    1.43160000e+00
bond_coeff 84 harmonic    3.00900000e+02    1.53750000e+00
bond_coeff 85 harmonic    3.30600000e+02    1.09690000e+00
bond_coeff 86 harmonic    3.30600000e+02    1.09690000e+00
bond_coeff 87 harmonic    3.38700000e+02    1.09100000e+00
bond_coeff 88 harmonic    2.83300000e+02    1.51100000e+00
bond_coeff 89 harmonic    3.38700000e+02    1.09100000e+00
bond_coeff 90 harmonic    2.83300000e+02    1.51100000e+00
bond_coeff 91 harmonic    2.83300000e+02    1.51100000e+00
bond_coeff 92 harmonic    2.83300000e+02    1.51100000e+00
bond_coeff 93 harmonic    3.38700000e+02    1.09100000e+00
bond_coeff 94 harmonic    3.38700000e+02    1.09100000e+00
bond_coeff 95 harmonic    3.38700000e+02    1.09100000e+00
bond_coeff 96 harmonic    3.38700000e+02    1.09100000e+00
bond_coeff 97 harmonic    3.38700000e+02    1.09100000e+00
bond_coeff 98 harmonic    3.38700000e+02    1.09100000e+00
bond_coeff 99 harmonic    3.38700000e+02    1.09100000e+00
bond_coeff 100 harmonic    3.38700000e+02    1.09100000e+00
bond_coeff 101 harmonic    3.38700000e+02    1.09100000e+00
bond_coeff 102 harmonic    3.30600000e+02    1.09690000e+00
bond_coeff 103 harmonic    3.30600000e+02    1.09690000e+00
bond_coeff 104 harmonic    3.30600000e+02    1.09690000e+00
bond_coeff 105 harmonic    3.30600000e+02    1.09690000e+00
bond_coeff 106 harmonic    3.30600000e+02    1.09690000e+00
bond_coeff 107 harmonic    3.00900000e+02    1.53750000e+00
bond_coeff 108 harmonic    3.13000000e+02    1.52410000e+00
bond_coeff 109 harmonic    3.00900000e+02    1.53750000e+00
bond_coeff 110 harmonic    3.00900000e+02    1.53750000e+00
bond_coeff 111 harmonic    6.37700000e+02    1.21830000e+00
bond_coeff 112 harmonic    3.90800000e+02    1.35840000e+00
bond_coeff 113 harmonic    3.08600000e+02    1.43160000e+00
bond_coeff 114 harmonic    3.00900000e+02    1.53750000e+00
bond_coeff 115 harmonic    3.30600000e+02    1.09690000e+00
bond_coeff 116 harmonic    3.30600000e+02    1.09690000e+00
bond_coeff 117 harmonic    3.38700000e+02    1.09100000e+00
bond_coeff 118 harmonic    2.83300000e+02    1.51100000e+00
bond_coeff 119 harmonic    3.38700000e+02    1.09100000e+00
bond_coeff 120 harmonic    2.83300000e+02    1.51100000e+00
bond_coeff 121 harmonic    2.83300000e+02    1.51100000e+00
bond_coeff 122 harmonic    2.83300000e+02    1.51100000e+00
bond_coeff 123 harmonic    3.38700000e+02    1.09100000e+00
bond_coeff 124 harmonic    3.38700000e+02    1.09100000e+00
bond_coeff 125 harmonic    3.38700000e+02    1.09100000e+00
bond_coeff 126 harmonic    3.38700000e+02    1.09100000e+00
bond_coeff 127 harmonic    3.38700000e+02    1.09100000e+00
bond_coeff 128 harmonic    3.38700000e+02    1.09100000e+00
bond_coeff 129 harmonic    3.38700000e+02    1.09100000e+00
bond_coeff 130 harmonic    3.38700000e+02    1.09100000e+00
bond_coeff 131 harmonic    3.38700000e+02    1.09100000e+00
bond_coeff 132 harmonic    3.30600000e+02    1.09690000e+00
bond_coeff 133 harmonic    3.30600000e+02    1.09690000e+00
bond_coeff 134 harmonic    3.30600000e+02    1.09690000e+00
bond_coeff 135 harmonic    3.30600000e+02    1.09690000e+00
bond_coeff 136 harmonic    3.30600000e+02    1.09690000e+00
bond_coeff 137 harmonic    3.00900000e+02    1.53750000e+00
bond_coeff 138 harmonic    3.13000000e+02    1.52410000e+00
bond_coeff 139 harmonic    3.00900000e+02    1.53750000e+00
bond_coeff 140 harmonic    3.00900000e+02    1.53750000e+00
bond_coeff 141 harmonic    3.90800000e+02    1.35840000e+00
bond_coeff 142 harmonic    6.37700000e+02    1.21830000e+00
bond_coeff 143 harmonic    3.08600000e+02    1.43160000e+00
bond_coeff 144 harmonic    3.00900000e+02    1.53750000e+00
bond_coeff 145 harmonic    3.30600000e+02    1.09690000e+00
bond_coeff 146 harmonic    3.30600000e+02    1.09690000e+00
bond_coeff 147 harmonic    3.30600000e+02    1.09690000e+00
bond_coeff 148 harmonic    3.00900000e+02    1.53750000e+00
bond_coeff 149 harmonic    3.30600000e+02    1.09690000e+00
bond_coeff 150 harmonic    2.33500000e+02    1.80750000e+00
bond_coeff 151 harmonic    3.30600000e+02    1.09690000e+00
bond_coeff 152 harmonic    3.30600000e+02    1.09690000e+00
bond_coeff 153 harmonic    5.12700000e+02    1.45330000e+00
bond_coeff 154 harmonic    3.17100000e+02    1.67200000e+00
bond_coeff 155 harmonic    5.12700000e+02    1.45330000e+00
bond_coeff 156 harmonic    3.17100000e+02    1.67230000e+00
bond_coeff 157 harmonic    4.93000000e+02    1.46600000e+00
bond_coeff 158 harmonic    2.32800000e+02    1.80870000e+00
bond_coeff 159 harmonic    4.93000000e+02    1.46600000e+00
bond_coeff 160 harmonic    3.56900000e+02    1.34970000e+00
bond_coeff 161 harmonic    3.56900000e+02    1.34970000e+00
bond_coeff 162 harmonic    3.56900000e+02    1.34970000e+00
bond_coeff 163 harmonic    3.30600000e+02    1.09690000e+00
bond_coeff 164 harmonic    3.30600000e+02    1.09690000e+00
bond_coeff 165 harmonic    3.30600000e+02    1.09690000e+00
bond_coeff 166 harmonic    3.30600000e+02    1.09690000e+00
bond_coeff 167 harmonic    3.30600000e+02    1.09690000e+00
bond_coeff 168 harmonic    3.00900000e+02    1.53750000e+00
bond_coeff 169 harmonic    3.13000000e+02    1.52410000e+00
bond_coeff 170 harmonic    3.00900000e+02    1.53750000e+00
bond_coeff 171 harmonic    3.00900000e+02    1.53750000e+00
bond_coeff 172 harmonic    6.37700000e+02    1.21830000e+00
bond_coeff 173 harmonic    3.90800000e+02    1.35840000e+00
bond_coeff 174 harmonic    3.08600000e+02    1.43160000e+00
bond_coeff 175 harmonic    3.00900000e+02    1.53750000e+00
bond_coeff 176 harmonic    3.30600000e+02    1.09690000e+00
bond_coeff 177 harmonic    3.30600000e+02    1.09690000e+00
bond_coeff 178 harmonic    3.38700000e+02    1.09100000e+00
bond_coeff 179 harmonic    2.83300000e+02    1.51100000e+00
bond_coeff 180 harmonic    3.38700000e+02    1.09100000e+00
bond_coeff 181 harmonic    2.83300000e+02    1.51100000e+00
bond_coeff 182 harmonic    2.83300000e+02    1.51100000e+00
bond_coeff 183 harmonic    2.83300000e+02    1.51100000e+00
bond_coeff 184 harmonic    3.38700000e+02    1.09100000e+00
bond_coeff 185 harmonic    3.38700000e+02    1.09100000e+00
bond_coeff 186 harmonic    3.38700000e+02    1.09100000e+00
bond_coeff 187 harmonic    3.38700000e+02    1.09100000e+00
bond_coeff 188 harmonic    3.38700000e+02    1.09100000e+00
bond_coeff 189 harmonic    3.38700000e+02    1.09100000e+00
bond_coeff 190 harmonic    3.38700000e+02    1.09100000e+00
bond_coeff 191 harmonic    3.38700000e+02    1.09100000e+00
bond_coeff 192 harmonic    3.38700000e+02    1.09100000e+00
bond_coeff 193 harmonic    3.30600000e+02    1.09690000e+00
bond_coeff 194 harmonic    3.30600000e+02    1.09690000e+00
bond_coeff 195 harmonic    3.30600000e+02    1.09690000e+00
bond_coeff 196 harmonic    3.30600000e+02    1.09690000e+00
bond_coeff 197 harmonic    3.30600000e+02    1.09690000e+00
bond_coeff 198 harmonic    3.00900000e+02    1.53750000e+00
bond_coeff 199 harmonic    3.13000000e+02    1.52410000e+00
bond_coeff 200 harmonic    3.00900000e+02    1.53750000e+00
bond_coeff 201 harmonic    3.00900000e+02    1.53750000e+00
bond_coeff 202 harmonic    6.37700000e+02    1.21830000e+00
bond_coeff 203 harmonic    3.90800000e+02    1.35840000e+00
bond_coeff 204 harmonic    3.08600000e+02    1.43160000e+00
bond_coeff 205 harmonic    3.00900000e+02    1.53750000e+00
bond_coeff 206 harmonic    3.30600000e+02    1.09690000e+00
bond_coeff 207 harmonic    3.30600000e+02    1.09690000e+00
bond_coeff 208 harmonic    3.38700000e+02    1.09100000e+00
bond_coeff 209 harmonic    2.83300000e+02    1.51100000e+00
bond_coeff 210 harmonic    3.38700000e+02    1.09100000e+00
bond_coeff 211 harmonic    2.83300000e+02    1.51100000e+00
bond_coeff 212 harmonic    2.83300000e+02    1.51100000e+00
bond_coeff 213 harmonic    2.83300000e+02    1.51100000e+00
bond_coeff 214 harmonic    3.38700000e+02    1.09100000e+00
bond_coeff 215 harmonic    3.38700000e+02    1.09100000e+00
bond_coeff 216 harmonic    3.38700000e+02    1.09100000e+00
bond_coeff 217 harmonic    3.38700000e+02    1.09100000e+00
bond_coeff 218 harmonic    3.38700000e+02    1.09100000e+00
bond_coeff 219 harmonic    3.38700000e+02    1.09100000e+00
bond_coeff 220 harmonic    3.38700000e+02    1.09100000e+00
bond_coeff 221 harmonic    3.38700000e+02    1.09100000e+00
bond_coeff 222 harmonic    3.38700000e+02    1.09100000e+00
bond_coeff 223 harmonic    3.30600000e+02    1.09690000e+00
bond_coeff 224 harmonic    3.30600000e+02    1.09690000e+00
bond_coeff 225 harmonic    3.30600000e+02    1.09690000e+00
bond_coeff 226 harmonic    3.30600000e+02    1.09690000e+00
bond_coeff 227 harmonic    3.30600000e+02    1.09690000e+00
bond_coeff 228 harmonic    3.00900000e+02    1.53750000e+00
bond_coeff 229 harmonic    3.13000000e+02    1.52410000e+00
bond_coeff 230 harmonic    3.00900000e+02    1.53750000e+00
bond_coeff 231 harmonic    3.00900000e+02    1.53750000e+00
bond_coeff 232 harmonic    3.90800000e+02    1.35840000e+00
bond_coeff 233 harmonic    6.37700000e+02    1.21830000e+00
bond_coeff 234 harmonic    3.08600000e+02    1.43160000e+00
bond_coeff 235 harmonic    3.00900000e+02    1.53750000e+00
bond_coeff 236 harmonic    3.30600000e+02    1.09690000e+00
bond_coeff 237 harmonic    3.30600000e+02    1.09690000e+00
bond_coeff 238 harmonic    3.30600000e+02    1.09690000e+00
bond_coeff 239 harmonic    3.00900000e+02    1.53750000e+00
bond_coeff 240 harmonic    3.30600000e+02    1.09690000e+00
bond_coeff 241 harmonic    2.33500000e+02    1.80750000e+00
bond_coeff 242 harmonic    3.30600000e+02    1.09690000e+00
bond_coeff 243 harmonic    3.30600000e+02    1.09690000e+00
bond_coeff 244 harmonic    5.12700000e+02    1.45330000e+00
bond_coeff 245 harmonic    3.17100000e+02    1.67200000e+00
bond_coeff 246 harmonic    5.12700000e+02    1.45330000e+00
bond_coeff 247 harmonic    3.17100000e+02    1.67230000e+00
bond_coeff 248 harmonic    4.93000000e+02    1.46600000e+00
bond_coeff 249 harmonic    2.32800000e+02    1.80870000e+00
bond_coeff 250 harmonic    4.93000000e+02    1.46600000e+00
bond_coeff 251 harmonic    3.56900000e+02    1.34970000e+00
bond_coeff 252 harmonic    3.56900000e+02    1.34970000e+00
bond_coeff 253 harmonic    3.56900000e+02    1.34970000e+00
bond_coeff 254 harmonic    3.30600000e+02    1.09690000e+00
bond_coeff 255 harmonic    3.30600000e+02    1.09690000e+00
bond_coeff 256 harmonic    3.30600000e+02    1.09690000e+00
bond_coeff 257 harmonic    3.30600000e+02    1.09690000e+00
bond_coeff 258 harmonic    3.30600000e+02    1.09690000e+00
bond_coeff 259 harmonic    3.00900000e+02    1.53750000e+00
bond_coeff 260 harmonic    3.13000000e+02    1.52410000e+00
bond_coeff 261 harmonic    3.00900000e+02    1.53750000e+00
bond_coeff 262 harmonic    3.00900000e+02    1.53750000e+00
bond_coeff 263 harmonic    6.37700000e+02    1.21830000e+00
bond_coeff 264 harmonic    3.90800000e+02    1.35840000e+00
bond_coeff 265 harmonic    3.08600000e+02    1.43160000e+00
bond_coeff 266 harmonic    3.00900000e+02    1.53750000e+00
bond_coeff 267 harmonic    3.30600000e+02    1.09690000e+00
bond_coeff 268 harmonic    3.30600000e+02    1.09690000e+00
bond_coeff 269 harmonic    3.38700000e+02    1.09100000e+00
bond_coeff 270 harmonic    2.83300000e+02    1.51100000e+00
bond_coeff 271 harmonic    3.38700000e+02    1.09100000e+00
bond_coeff 272 harmonic    2.83300000e+02    1.51100000e+00
bond_coeff 273 harmonic    2.83300000e+02    1.51100000e+00
bond_coeff 274 harmonic    2.83300000e+02    1.51100000e+00
bond_coeff 275 harmonic    3.38700000e+02    1.09100000e+00
bond_coeff 276 harmonic    3.38700000e+02    1.09100000e+00
bond_coeff 277 harmonic    3.38700000e+02    1.09100000e+00
bond_coeff 278 harmonic    3.38700000e+02    1.09100000e+00
bond_coeff 279 harmonic    3.38700000e+02    1.09100000e+00
bond_coeff 280 harmonic    3.38700000e+02    1.09100000e+00
bond_coeff 281 harmonic    3.38700000e+02    1.09100000e+00
bond_coeff 282 harmonic    3.38700000e+02    1.09100000e+00
bond_coeff 283 harmonic    3.38700000e+02    1.09100000e+00
bond_coeff 284 harmonic    3.30600000e+02    1.09690000e+00
bond_coeff 285 harmonic    3.30600000e+02    1.09690000e+00
bond_coeff 286 harmonic    3.30600000e+02    1.09690000e+00
bond_coeff 287 harmonic    3.30600000e+02    1.09690000e+00
bond_coeff 288 harmonic    3.30600000e+02    1.09690000e+00
bond_coeff 289 harmonic    3.00900000e+02    1.53750000e+00
bond_coeff 290 harmonic    3.13000000e+02    1.52410000e+00
bond_coeff 291 harmonic    3.00900000e+02    1.53750000e+00
bond_coeff 292 harmonic    3.00900000e+02    1.53750000e+00
bond_coeff 293 harmonic    6.37700000e+02    1.21830000e+00
bond_coeff 294 harmonic    3.90800000e+02    1.35840000e+00
bond_coeff 295 harmonic    3.08600000e+02    1.43160000e+00
bond_coeff 296 harmonic    3.00900000e+02    1.53750000e+00
bond_coeff 297 harmonic    3.30600000e+02    1.09690000e+00
bond_coeff 298 harmonic    3.30600000e+02    1.09690000e+00
bond_coeff 299 harmonic    3.38700000e+02    1.09100000e+00
bond_coeff 300 harmonic    2.83300000e+02    1.51100000e+00
bond_coeff 301 harmonic    3.38700000e+02    1.09100000e+00
bond_coeff 302 harmonic    2.83300000e+02    1.51100000e+00
bond_coeff 303 harmonic    2.83300000e+02    1.51100000e+00
bond_coeff 304 harmonic    2.83300000e+02    1.51100000e+00
bond_coeff 305 harmonic    3.38700000e+02    1.09100000e+00
bond_coeff 306 harmonic    3.38700000e+02    1.09100000e+00
bond_coeff 307 harmonic    3.38700000e+02    1.09100000e+00
bond_coeff 308 harmonic    3.38700000e+02    1.09100000e+00
bond_coeff 309 harmonic    3.38700000e+02    1.09100000e+00
bond_coeff 310 harmonic    3.38700000e+02    1.09100000e+00
bond_coeff 311 harmonic    3.38700000e+02    1.09100000e+00
bond_coeff 312 harmonic    3.38700000e+02    1.09100000e+00
bond_coeff 313 harmonic    3.38700000e+02    1.09100000e+00
bond_coeff 314 harmonic    3.30600000e+02    1.09690000e+00
bond_coeff 315 harmonic    3.30600000e+02    1.09690000e+00
bond_coeff 316 harmonic    3.30600000e+02    1.09690000e+00
bond_coeff 317 harmonic    3.30600000e+02    1.09690000e+00
bond_coeff 318 harmonic    3.30600000e+02    1.09690000e+00
bond_coeff 319 harmonic    3.00900000e+02    1.53750000e+00
bond_coeff 320 harmonic    3.13000000e+02    1.52410000e+00
bond_coeff 321 harmonic    3.00900000e+02    1.53750000e+00
bond_coeff 322 harmonic    3.00900000e+02    1.53750000e+00
bond_coeff 323 harmonic    3.90800000e+02    1.35840000e+00
bond_coeff 324 harmonic    6.37700000e+02    1.21830000e+00
bond_coeff 325 harmonic    3.08600000e+02    1.43160000e+00
bond_coeff 326 harmonic    3.00900000e+02    1.53750000e+00
bond_coeff 327 harmonic    3.30600000e+02    1.09690000e+00
bond_coeff 328 harmonic    3.30600000e+02    1.09690000e+00
bond_coeff 329 harmonic    3.30600000e+02    1.09690000e+00
bond_coeff 330 harmonic    3.00900000e+02    1.53750000e+00
bond_coeff 331 harmonic    3.30600000e+02    1.09690000e+00
bond_coeff 332 harmonic    2.33500000e+02    1.80750000e+00
bond_coeff 333 harmonic    3.30600000e+02    1.09690000e+00
bond_coeff 334 harmonic    3.30600000e+02    1.09690000e+00
bond_coeff 335 harmonic    5.12700000e+02    1.45330000e+00
bond_coeff 336 harmonic    3.17100000e+02    1.67200000e+00
bond_coeff 337 harmonic    5.12700000e+02    1.45330000e+00
bond_coeff 338 harmonic    3.17100000e+02    1.67230000e+00
bond_coeff 339 harmonic    4.93000000e+02    1.46600000e+00
bond_coeff 340 harmonic    2.32800000e+02    1.80870000e+00
bond_coeff 341 harmonic    4.93000000e+02    1.46600000e+00
bond_coeff 342 harmonic    3.56900000e+02    1.34970000e+00
bond_coeff 343 harmonic    3.56900000e+02    1.34970000e+00
bond_coeff 344 harmonic    3.56900000e+02    1.34970000e+00
bond_coeff 345 harmonic    3.30600000e+02    1.09690000e+00
bond_coeff 346 harmonic    3.30600000e+02    1.09690000e+00
bond_coeff 347 harmonic    3.30600000e+02    1.09690000e+00
bond_coeff 348 harmonic    3.30600000e+02    1.09690000e+00
bond_coeff 349 harmonic    3.30600000e+02    1.09690000e+00
bond_coeff 350 harmonic    3.00900000e+02    1.53750000e+00
bond_coeff 351 harmonic    3.13000000e+02    1.52410000e+00
bond_coeff 352 harmonic    3.00900000e+02    1.53750000e+00
bond_coeff 353 harmonic    3.00900000e+02    1.53750000e+00
bond_coeff 354 harmonic    6.37700000e+02    1.21830000e+00
bond_coeff 355 harmonic    3.90800000e+02    1.35840000e+00
bond_coeff 356 harmonic    3.08600000e+02    1.43160000e+00
bond_coeff 357 harmonic    3.00900000e+02    1.53750000e+00
bond_coeff 358 harmonic    3.30600000e+02    1.09690000e+00
bond_coeff 359 harmonic    3.30600000e+02    1.09690000e+00
bond_coeff 360 harmonic    3.38700000e+02    1.09100000e+00
bond_coeff 361 harmonic    2.83300000e+02    1.51100000e+00
bond_coeff 362 harmonic    3.38700000e+02    1.09100000e+00
bond_coeff 363 harmonic    2.83300000e+02    1.51100000e+00
bond_coeff 364 harmonic    2.83300000e+02    1.51100000e+00
bond_coeff 365 harmonic    2.83300000e+02    1.51100000e+00
bond_coeff 366 harmonic    3.38700000e+02    1.09100000e+00
bond_coeff 367 harmonic    3.38700000e+02    1.09100000e+00
bond_coeff 368 harmonic    3.38700000e+02    1.09100000e+00
bond_coeff 369 harmonic    3.38700000e+02    1.09100000e+00
bond_coeff 370 harmonic    3.38700000e+02    1.09100000e+00
bond_coeff 371 harmonic    3.38700000e+02    1.09100000e+00
bond_coeff 372 harmonic    3.38700000e+02    1.09100000e+00
bond_coeff 373 harmonic    3.38700000e+02    1.09100000e+00
bond_coeff 374 harmonic    3.38700000e+02    1.09100000e+00
bond_coeff 375 harmonic    3.30600000e+02    1.09690000e+00
bond_coeff 376 harmonic    3.30600000e+02    1.09690000e+00
bond_coeff 377 harmonic    3.30600000e+02    1.09690000e+00
bond_coeff 378 harmonic    3.30600000e+02    1.09690000e+00
bond_coeff 379 harmonic    3.30600000e+02    1.09690000e+00
bond_coeff 380 harmonic    3.00900000e+02    1.53750000e+00
bond_coeff 381 harmonic    3.13000000e+02    1.52410000e+00
bond_coeff 382 harmonic    3.00900000e+02    1.53750000e+00
bond_coeff 383 harmonic    3.00900000e+02    1.53750000e+00
bond_coeff 384 harmonic    6.37700000e+02    1.21830000e+00
bond_coeff 385 harmonic    3.90800000e+02    1.35840000e+00
bond_coeff 386 harmonic    3.08600000e+02    1.43160000e+00
bond_coeff 387 harmonic    3.00900000e+02    1.53750000e+00
bond_coeff 388 harmonic    3.30600000e+02    1.09690000e+00
bond_coeff 389 harmonic    3.30600000e+02    1.09690000e+00
bond_coeff 390 harmonic    3.38700000e+02    1.09100000e+00
bond_coeff 391 harmonic    2.83300000e+02    1.51100000e+00
bond_coeff 392 harmonic    3.38700000e+02    1.09100000e+00
bond_coeff 393 harmonic    2.83300000e+02    1.51100000e+00
bond_coeff 394 harmonic    2.83300000e+02    1.51100000e+00
bond_coeff 395 harmonic    2.83300000e+02    1.51100000e+00
bond_coeff 396 harmonic    3.38700000e+02    1.09100000e+00
bond_coeff 397 harmonic    3.38700000e+02    1.09100000e+00
bond_coeff 398 harmonic    3.38700000e+02    1.09100000e+00
bond_coeff 399 harmonic    3.38700000e+02    1.09100000e+00
bond_coeff 400 harmonic    3.38700000e+02    1.09100000e+00
bond_coeff 401 harmonic    3.38700000e+02    1.09100000e+00
bond_coeff 402 harmonic    3.38700000e+02    1.09100000e+00
bond_coeff 403 harmonic    3.38700000e+02    1.09100000e+00
bond_coeff 404 harmonic    3.38700000e+02    1.09100000e+00
bond_coeff 405 harmonic    3.30600000e+02    1.09690000e+00
bond_coeff 406 harmonic    3.30600000e+02    1.09690000e+00
bond_coeff 407 harmonic    3.30600000e+02    1.09690000e+00
bond_coeff 408 harmonic    3.30600000e+02    1.09690000e+00
bond_coeff 409 harmonic    3.30600000e+02    1.09690000e+00
bond_coeff 410 harmonic    3.00900000e+02    1.53750000e+00
bond_coeff 411 harmonic    3.13000000e+02    1.52410000e+00
bond_coeff 412 harmonic    3.00900000e+02    1.53750000e+00
bond_coeff 413 harmonic    3.00900000e+02    1.53750000e+00
bond_coeff 414 harmonic    3.90800000e+02    1.35840000e+00
bond_coeff 415 harmonic    6.37700000e+02    1.21830000e+00
bond_coeff 416 harmonic    3.08600000e+02    1.43160000e+00
bond_coeff 417 harmonic    3.00900000e+02    1.53750000e+00
bond_coeff 418 harmonic    3.30600000e+02    1.09690000e+00
bond_coeff 419 harmonic    3.30600000e+02    1.09690000e+00
bond_coeff 420 harmonic    3.30600000e+02    1.09690000e+00
bond_coeff 421 harmonic    3.00900000e+02    1.53750000e+00
bond_coeff 422 harmonic    3.30600000e+02    1.09690000e+00
bond_coeff 423 harmonic    2.33500000e+02    1.80750000e+00
bond_coeff 424 harmonic    3.30600000e+02    1.09690000e+00
bond_coeff 425 harmonic    3.30600000e+02    1.09690000e+00
bond_coeff 426 harmonic    5.12700000e+02    1.45330000e+00
bond_coeff 427 harmonic    3.17100000e+02    1.67200000e+00
bond_coeff 428 harmonic    5.12700000e+02    1.45330000e+00
bond_coeff 429 harmonic    3.17100000e+02    1.67230000e+00
bond_coeff 430 harmonic    4.93000000e+02    1.46600000e+00
bond_coeff 431 harmonic    2.32800000e+02    1.80870000e+00
bond_coeff 432 harmonic    4.93000000e+02    1.46600000e+00
bond_coeff 433 harmonic    3.56900000e+02    1.34970000e+00
bond_coeff 434 harmonic    3.56900000e+02    1.34970000e+00
bond_coeff 435 harmonic    3.56900000e+02    1.34970000e+00
bond_coeff 436 harmonic    3.30600000e+02    1.09690000e+00
bond_coeff 437 harmonic    3.30600000e+02    1.09690000e+00
bond_coeff 438 harmonic    3.30600000e+02    1.09690000e+00
bond_coeff 439 harmonic    3.30600000e+02    1.09690000e+00
bond_coeff 440 harmonic    3.30600000e+02    1.09690000e+00
bond_coeff 441 harmonic    3.00900000e+02    1.53750000e+00
bond_coeff 442 harmonic    3.13000000e+02    1.52410000e+00
bond_coeff 443 harmonic    3.00900000e+02    1.53750000e+00
bond_coeff 444 harmonic    3.00900000e+02    1.53750000e+00
bond_coeff 445 harmonic    6.37700000e+02    1.21830000e+00
bond_coeff 446 harmonic    3.90800000e+02    1.35840000e+00
bond_coeff 447 harmonic    3.08600000e+02    1.43160000e+00
bond_coeff 448 harmonic    3.00900000e+02    1.53750000e+00
bond_coeff 449 harmonic    3.30600000e+02    1.09690000e+00
bond_coeff 450 harmonic    3.30600000e+02    1.09690000e+00
bond_coeff 451 harmonic    3.38700000e+02    1.09100000e+00
bond_coeff 452 harmonic    2.83300000e+02    1.51100000e+00
bond_coeff 453 harmonic    3.38700000e+02    1.09100000e+00
bond_coeff 454 harmonic    2.83300000e+02    1.51100000e+00
bond_coeff 455 harmonic    2.83300000e+02    1.51100000e+00
bond_coeff 456 harmonic    2.83300000e+02    1.51100000e+00
bond_coeff 457 harmonic    3.38700000e+02    1.09100000e+00
bond_coeff 458 harmonic    3.38700000e+02    1.09100000e+00
bond_coeff 459 harmonic    3.38700000e+02    1.09100000e+00
bond_coeff 460 harmonic    3.38700000e+02    1.09100000e+00
bond_coeff 461 harmonic    3.38700000e+02    1.09100000e+00
bond_coeff 462 harmonic    3.38700000e+02    1.09100000e+00
bond_coeff 463 harmonic    3.38700000e+02    1.09100000e+00
bond_coeff 464 harmonic    3.38700000e+02    1.09100000e+00
bond_coeff 465 harmonic    3.38700000e+02    1.09100000e+00
bond_coeff 466 harmonic    3.30600000e+02    1.09690000e+00
bond_coeff 467 harmonic    3.30600000e+02    1.09690000e+00
bond_coeff 468 harmonic    3.30600000e+02    1.09690000e+00
bond_coeff 469 harmonic    3.30600000e+02    1.09690000e+00
bond_coeff 470 harmonic    3.30600000e+02    1.09690000e+00
bond_coeff 471 harmonic    3.00900000e+02    1.53750000e+00
bond_coeff 472 harmonic    3.13000000e+02    1.52410000e+00
bond_coeff 473 harmonic    3.00900000e+02    1.53750000e+00
bond_coeff 474 harmonic    3.00900000e+02    1.53750000e+00
bond_coeff 475 harmonic    6.37700000e+02    1.21830000e+00
bond_coeff 476 harmonic    3.90800000e+02    1.35840000e+00
bond_coeff 477 harmonic    3.08600000e+02    1.43160000e+00
bond_coeff 478 harmonic    3.00900000e+02    1.53750000e+00
bond_coeff 479 harmonic    3.30600000e+02    1.09690000e+00
bond_coeff 480 harmonic    3.30600000e+02    1.09690000e+00
bond_coeff 481 harmonic    3.38700000e+02    1.09100000e+00
bond_coeff 482 harmonic    2.83300000e+02    1.51100000e+00
bond_coeff 483 harmonic    3.38700000e+02    1.09100000e+00
bond_coeff 484 harmonic    2.83300000e+02    1.51100000e+00
bond_coeff 485 harmonic    2.83300000e+02    1.51100000e+00
bond_coeff 486 harmonic    2.83300000e+02    1.51100000e+00
bond_coeff 487 harmonic    3.38700000e+02    1.09100000e+00
bond_coeff 488 harmonic    3.38700000e+02    1.09100000e+00
bond_coeff 489 harmonic    3.38700000e+02    1.09100000e+00
bond_coeff 490 harmonic    3.38700000e+02    1.09100000e+00
bond_coeff 491 harmonic    3.38700000e+02    1.09100000e+00
bond_coeff 492 harmonic    3.38700000e+02    1.09100000e+00
bond_coeff 493 harmonic    3.38700000e+02    1.09100000e+00
bond_coeff 494 harmonic    3.38700000e+02    1.09100000e+00
bond_coeff 495 harmonic    3.38700000e+02    1.09100000e+00
bond_coeff 496 harmonic    3.30600000e+02    1.09690000e+00
bond_coeff 497 harmonic    3.30600000e+02    1.09690000e+00
bond_coeff 498 harmonic    3.30600000e+02    1.09690000e+00
bond_coeff 499 harmonic    3.30600000e+02    1.09690000e+00
bond_coeff 500 harmonic    3.30600000e+02    1.09690000e+00
bond_coeff 501 harmonic    3.00900000e+02    1.53750000e+00
bond_coeff 502 harmonic    3.13000000e+02    1.52410000e+00
bond_coeff 503 harmonic    3.00900000e+02    1.53750000e+00
bond_coeff 504 harmonic    3.00900000e+02    1.53750000e+00
bond_coeff 505 harmonic    3.90800000e+02    1.35840000e+00
bond_coeff 506 harmonic    6.37700000e+02    1.21830000e+00
bond_coeff 507 harmonic    3.08600000e+02    1.43160000e+00
bond_coeff 508 harmonic    3.00900000e+02    1.53750000e+00
bond_coeff 509 harmonic    3.30600000e+02    1.09690000e+00
bond_coeff 510 harmonic    3.30600000e+02    1.09690000e+00
bond_coeff 511 harmonic    3.30600000e+02    1.09690000e+00
bond_coeff 512 harmonic    3.00900000e+02    1.53750000e+00
bond_coeff 513 harmonic    3.30600000e+02    1.09690000e+00
bond_coeff 514 harmonic    2.33500000e+02    1.80750000e+00
bond_coeff 515 harmonic    3.30600000e+02    1.09690000e+00
bond_coeff 516 harmonic    3.30600000e+02    1.09690000e+00
bond_coeff 517 harmonic    5.12700000e+02    1.45330000e+00
bond_coeff 518 harmonic    3.17100000e+02    1.67200000e+00
bond_coeff 519 harmonic    5.12700000e+02    1.45330000e+00
bond_coeff 520 harmonic    3.17100000e+02    1.67230000e+00
bond_coeff 521 harmonic    4.93000000e+02    1.46600000e+00
bond_coeff 522 harmonic    2.32800000e+02    1.80870000e+00
bond_coeff 523 harmonic    4.93000000e+02    1.46600000e+00
bond_coeff 524 harmonic    3.56900000e+02    1.34970000e+00
bond_coeff 525 harmonic    3.56900000e+02    1.34970000e+00
bond_coeff 526 harmonic    3.56900000e+02    1.34970000e+00
bond_coeff 527 harmonic    3.30600000e+02    1.09690000e+00
bond_coeff 528 harmonic    3.30600000e+02    1.09690000e+00
bond_coeff 529 harmonic    3.30600000e+02    1.09690000e+00
bond_coeff 530 harmonic    3.30600000e+02    1.09690000e+00
bond_coeff 531 harmonic    3.30600000e+02    1.09690000e+00
bond_coeff 532 harmonic    3.00900000e+02    1.53750000e+00
bond_coeff 533 harmonic    3.13000000e+02    1.52410000e+00
bond_coeff 534 harmonic    3.00900000e+02    1.53750000e+00
bond_coeff 535 harmonic    3.00900000e+02    1.53750000e+00
bond_coeff 536 harmonic    6.37700000e+02    1.21830000e+00
bond_coeff 537 harmonic    3.90800000e+02    1.35840000e+00
bond_coeff 538 harmonic    3.08600000e+02    1.43160000e+00
bond_coeff 539 harmonic    3.00900000e+02    1.53750000e+00
bond_coeff 540 harmonic    3.30600000e+02    1.09690000e+00
bond_coeff 541 harmonic    3.30600000e+02    1.09690000e+00
bond_coeff 542 harmonic    3.38700000e+02    1.09100000e+00
bond_coeff 543 harmonic    2.83300000e+02    1.51100000e+00
bond_coeff 544 harmonic    3.38700000e+02    1.09100000e+00
bond_coeff 545 harmonic    2.83300000e+02    1.51100000e+00
bond_coeff 546 harmonic    2.83300000e+02    1.51100000e+00
bond_coeff 547 harmonic    2.83300000e+02    1.51100000e+00
bond_coeff 548 harmonic    3.38700000e+02    1.09100000e+00
bond_coeff 549 harmonic    3.38700000e+02    1.09100000e+00
bond_coeff 550 harmonic    3.38700000e+02    1.09100000e+00
bond_coeff 551 harmonic    3.38700000e+02    1.09100000e+00
bond_coeff 552 harmonic    3.38700000e+02    1.09100000e+00
bond_coeff 553 harmonic    3.38700000e+02    1.09100000e+00
bond_coeff 554 harmonic    3.38700000e+02    1.09100000e+00
bond_coeff 555 harmonic    3.38700000e+02    1.09100000e+00
bond_coeff 556 harmonic    3.38700000e+02    1.09100000e+00
bond_coeff 557 harmonic    3.30600000e+02    1.09690000e+00
bond_coeff 558 harmonic    3.30600000e+02    1.09690000e+00
bond_coeff 559 harmonic    3.30600000e+02    1.09690000e+00
bond_coeff 560 harmonic    3.30600000e+02    1.09690000e+00
bond_coeff 561 harmonic    3.30600000e+02    1.09690000e+00
bond_coeff 562 harmonic    3.00900000e+02    1.53750000e+00
bond_coeff 563 harmonic    3.13000000e+02    1.52410000e+00
bond_coeff 564 harmonic    3.00900000e+02    1.53750000e+00
bond_coeff 565 harmonic    3.00900000e+02    1.53750000e+00
bond_coeff 566 harmonic    6.37700000e+02    1.21830000e+00
bond_coeff 567 harmonic    3.90800000e+02    1.35840000e+00
bond_coeff 568 harmonic    3.08600000e+02    1.43160000e+00
bond_coeff 569 harmonic    3.00900000e+02    1.53750000e+00
bond_coeff 570 harmonic    3.30600000e+02    1.09690000e+00
bond_coeff 571 harmonic    3.30600000e+02    1.09690000e+00
bond_coeff 572 harmonic    3.38700000e+02    1.09100000e+00
bond_coeff 573 harmonic    2.83300000e+02    1.51100000e+00
bond_coeff 574 harmonic    3.38700000e+02    1.09100000e+00
bond_coeff 575 harmonic    2.83300000e+02    1.51100000e+00
bond_coeff 576 harmonic    2.83300000e+02    1.51100000e+00
bond_coeff 577 harmonic    2.83300000e+02    1.51100000e+00
bond_coeff 578 harmonic    3.38700000e+02    1.09100000e+00
bond_coeff 579 harmonic    3.38700000e+02    1.09100000e+00
bond_coeff 580 harmonic    3.38700000e+02    1.09100000e+00
bond_coeff 581 harmonic    3.38700000e+02    1.09100000e+00
bond_coeff 582 harmonic    3.38700000e+02    1.09100000e+00
bond_coeff 583 harmonic    3.38700000e+02    1.09100000e+00
bond_coeff 584 harmonic    3.38700000e+02    1.09100000e+00
bond_coeff 585 harmonic    3.38700000e+02    1.09100000e+00
bond_coeff 586 harmonic    3.38700000e+02    1.09100000e+00
bond_coeff 587 harmonic    3.30600000e+02    1.09690000e+00
bond_coeff 588 harmonic    3.30600000e+02    1.09690000e+00
bond_coeff 589 harmonic    3.30600000e+02    1.09690000e+00
bond_coeff 590 harmonic    3.30600000e+02    1.09690000e+00
bond_coeff 591 harmonic    3.30600000e+02    1.09690000e+00
bond_coeff 592 harmonic    3.00900000e+02    1.53750000e+00
bond_coeff 593 harmonic    3.13000000e+02    1.52410000e+00
bond_coeff 594 harmonic    3.00900000e+02    1.53750000e+00
bond_coeff 595 harmonic    3.00900000e+02    1.53750000e+00
bond_coeff 596 harmonic    3.90800000e+02    1.35840000e+00
bond_coeff 597 harmonic    6.37700000e+02    1.21830000e+00
bond_coeff 598 harmonic    3.08600000e+02    1.43160000e+00
bond_coeff 599 harmonic    3.00900000e+02    1.53750000e+00
bond_coeff 600 harmonic    3.30600000e+02    1.09690000e+00
bond_coeff 601 harmonic    3.30600000e+02    1.09690000e+00
bond_coeff 602 harmonic    3.30600000e+02    1.09690000e+00
bond_coeff 603 harmonic    3.00900000e+02    1.53750000e+00
bond_coeff 604 harmonic    3.30600000e+02    1.09690000e+00
bond_coeff 605 harmonic    2.33500000e+02    1.80750000e+00
bond_coeff 606 harmonic    3.30600000e+02    1.09690000e+00
bond_coeff 607 harmonic    3.30600000e+02    1.09690000e+00
bond_coeff 608 harmonic    5.12700000e+02    1.45330000e+00
bond_coeff 609 harmonic    3.17100000e+02    1.67200000e+00
bond_coeff 610 harmonic    5.12700000e+02    1.45330000e+00
bond_coeff 611 harmonic    3.17100000e+02    1.67230000e+00
bond_coeff 612 harmonic    4.93000000e+02    1.46600000e+00
bond_coeff 613 harmonic    2.32800000e+02    1.80870000e+00
bond_coeff 614 harmonic    4.93000000e+02    1.46600000e+00
bond_coeff 615 harmonic    3.56900000e+02    1.34970000e+00
bond_coeff 616 harmonic    3.56900000e+02    1.34970000e+00
bond_coeff 617 harmonic    3.56900000e+02    1.34970000e+00
bond_coeff 618 harmonic    3.30600000e+02    1.09690000e+00
bond_coeff 619 harmonic    3.30600000e+02    1.09690000e+00
bond_coeff 620 harmonic    3.30600000e+02    1.09690000e+00
bond_coeff 621 harmonic    3.30600000e+02    1.09690000e+00
bond_coeff 622 harmonic    3.30600000e+02    1.09690000e+00
bond_coeff 623 harmonic    3.00900000e+02    1.53750000e+00
bond_coeff 624 harmonic    3.13000000e+02    1.52410000e+00
bond_coeff 625 harmonic    3.00900000e+02    1.53750000e+00
bond_coeff 626 harmonic    3.00900000e+02    1.53750000e+00
bond_coeff 627 harmonic    6.37700000e+02    1.21830000e+00
bond_coeff 628 harmonic    3.90800000e+02    1.35840000e+00
bond_coeff 629 harmonic    3.08600000e+02    1.43160000e+00
bond_coeff 630 harmonic    3.00900000e+02    1.53750000e+00
bond_coeff 631 harmonic    3.30600000e+02    1.09690000e+00
bond_coeff 632 harmonic    3.30600000e+02    1.09690000e+00
bond_coeff 633 harmonic    3.38700000e+02    1.09100000e+00
bond_coeff 634 harmonic    2.83300000e+02    1.51100000e+00
bond_coeff 635 harmonic    3.38700000e+02    1.09100000e+00
bond_coeff 636 harmonic    2.83300000e+02    1.51100000e+00
bond_coeff 637 harmonic    2.83300000e+02    1.51100000e+00
bond_coeff 638 harmonic    2.83300000e+02    1.51100000e+00
bond_coeff 639 harmonic    3.38700000e+02    1.09100000e+00
bond_coeff 640 harmonic    3.38700000e+02    1.09100000e+00
bond_coeff 641 harmonic    3.38700000e+02    1.09100000e+00
bond_coeff 642 harmonic    3.38700000e+02    1.09100000e+00
bond_coeff 643 harmonic    3.38700000e+02    1.09100000e+00
bond_coeff 644 harmonic    3.38700000e+02    1.09100000e+00
bond_coeff 645 harmonic    3.38700000e+02    1.09100000e+00
bond_coeff 646 harmonic    3.38700000e+02    1.09100000e+00
bond_coeff 647 harmonic    3.38700000e+02    1.09100000e+00
bond_coeff 648 harmonic    3.30600000e+02    1.09690000e+00
bond_coeff 649 harmonic    3.30600000e+02    1.09690000e+00
bond_coeff 650 harmonic    3.30600000e+02    1.09690000e+00
bond_coeff 651 harmonic    3.30600000e+02    1.09690000e+00
bond_coeff 652 harmonic    3.30600000e+02    1.09690000e+00
bond_coeff 653 harmonic    3.00900000e+02    1.53750000e+00
bond_coeff 654 harmonic    3.13000000e+02    1.52410000e+00
bond_coeff 655 harmonic    3.00900000e+02    1.53750000e+00
bond_coeff 656 harmonic    3.00900000e+02    1.53750000e+00
bond_coeff 657 harmonic    6.37700000e+02    1.21830000e+00
bond_coeff 658 harmonic    3.90800000e+02    1.35840000e+00
bond_coeff 659 harmonic    3.08600000e+02    1.43160000e+00
bond_coeff 660 harmonic    3.00900000e+02    1.53750000e+00
bond_coeff 661 harmonic    3.30600000e+02    1.09690000e+00
bond_coeff 662 harmonic    3.30600000e+02    1.09690000e+00
bond_coeff 663 harmonic    3.38700000e+02    1.09100000e+00
bond_coeff 664 harmonic    2.83300000e+02    1.51100000e+00
bond_coeff 665 harmonic    3.38700000e+02    1.09100000e+00
bond_coeff 666 harmonic    2.83300000e+02    1.51100000e+00
bond_coeff 667 harmonic    2.83300000e+02    1.51100000e+00
bond_coeff 668 harmonic    2.83300000e+02    1.51100000e+00
bond_coeff 669 harmonic    3.38700000e+02    1.09100000e+00
bond_coeff 670 harmonic    3.38700000e+02    1.09100000e+00
bond_coeff 671 harmonic    3.38700000e+02    1.09100000e+00
bond_coeff 672 harmonic    3.38700000e+02    1.09100000e+00
bond_coeff 673 harmonic    3.38700000e+02    1.09100000e+00
bond_coeff 674 harmonic    3.38700000e+02    1.09100000e+00
bond_coeff 675 harmonic    3.38700000e+02    1.09100000e+00
bond_coeff 676 harmonic    3.38700000e+02    1.09100000e+00
bond_coeff 677 harmonic    3.38700000e+02    1.09100000e+00
bond_coeff 678 harmonic    3.30600000e+02    1.09690000e+00
bond_coeff 679 harmonic    3.30600000e+02    1.09690000e+00
bond_coeff 680 harmonic    3.30600000e+02    1.09690000e+00
bond_coeff 681 harmonic    3.30600000e+02    1.09690000e+00
bond_coeff 682 harmonic    3.30600000e+02    1.09690000e+00
bond_coeff 683 harmonic    3.00900000e+02    1.53750000e+00
bond_coeff 684 harmonic    3.13000000e+02    1.52410000e+00
bond_coeff 685 harmonic    3.00900000e+02    1.53750000e+00
bond_coeff 686 harmonic    3.00900000e+02    1.53750000e+00
bond_coeff 687 harmonic    3.90800000e+02    1.35840000e+00
bond_coeff 688 harmonic    6.37700000e+02    1.21830000e+00
bond_coeff 689 harmonic    3.08600000e+02    1.43160000e+00
bond_coeff 690 harmonic    3.00900000e+02    1.53750000e+00
bond_coeff 691 harmonic    3.30600000e+02    1.09690000e+00
bond_coeff 692 harmonic    3.30600000e+02    1.09690000e+00
bond_coeff 693 harmonic    3.30600000e+02    1.09690000e+00
bond_coeff 694 harmonic    3.00900000e+02    1.53750000e+00
bond_coeff 695 harmonic    3.30600000e+02    1.09690000e+00
bond_coeff 696 harmonic    2.33500000e+02    1.80750000e+00
bond_coeff 697 harmonic    3.30600000e+02    1.09690000e+00
bond_coeff 698 harmonic    3.30600000e+02    1.09690000e+00
bond_coeff 699 harmonic    5.12700000e+02    1.45330000e+00
bond_coeff 700 harmonic    3.17100000e+02    1.67200000e+00
bond_coeff 701 harmonic    5.12700000e+02    1.45330000e+00
bond_coeff 702 harmonic    3.17100000e+02    1.67230000e+00
bond_coeff 703 harmonic    4.93000000e+02    1.46600000e+00
bond_coeff 704 harmonic    2.32800000e+02    1.80870000e+00
bond_coeff 705 harmonic    4.93000000e+02    1.46600000e+00
bond_coeff 706 harmonic    3.56900000e+02    1.34970000e+00
bond_coeff 707 harmonic    3.56900000e+02    1.34970000e+00
bond_coeff 708 harmonic    3.56900000e+02    1.34970000e+00
bond_coeff 709 harmonic    3.30600000e+02    1.09690000e+00
bond_coeff 710 harmonic    3.30600000e+02    1.09690000e+00
bond_coeff 711 harmonic    3.30600000e+02    1.09690000e+00
bond_coeff 712 harmonic    3.30600000e+02    1.09690000e+00
bond_coeff 713 harmonic    3.30600000e+02    1.09690000e+00
bond_coeff 714 harmonic    3.00900000e+02    1.53750000e+00
bond_coeff 715 harmonic    3.13000000e+02    1.52410000e+00
bond_coeff 716 harmonic    3.00900000e+02    1.53750000e+00
bond_coeff 717 harmonic    3.00900000e+02    1.53750000e+00
bond_coeff 718 harmonic    6.37700000e+02    1.21830000e+00
bond_coeff 719 harmonic    3.90800000e+02    1.35840000e+00
bond_coeff 720 harmonic    3.08600000e+02    1.43160000e+00
bond_coeff 721 harmonic    3.00900000e+02    1.53750000e+00
bond_coeff 722 harmonic    3.30600000e+02    1.09690000e+00
bond_coeff 723 harmonic    3.30600000e+02    1.09690000e+00
bond_coeff 724 harmonic    3.38700000e+02    1.09100000e+00
bond_coeff 725 harmonic    2.83300000e+02    1.51100000e+00
bond_coeff 726 harmonic    3.38700000e+02    1.09100000e+00
bond_coeff 727 harmonic    2.83300000e+02    1.51100000e+00
bond_coeff 728 harmonic    2.83300000e+02    1.51100000e+00
bond_coeff 729 harmonic    2.83300000e+02    1.51100000e+00
bond_coeff 730 harmonic    3.38700000e+02    1.09100000e+00
bond_coeff 731 harmonic    3.38700000e+02    1.09100000e+00
bond_coeff 732 harmonic    3.38700000e+02    1.09100000e+00
bond_coeff 733 harmonic    3.38700000e+02    1.09100000e+00
bond_coeff 734 harmonic    3.38700000e+02    1.09100000e+00
bond_coeff 735 harmonic    3.38700000e+02    1.09100000e+00
bond_coeff 736 harmonic    3.38700000e+02    1.09100000e+00
bond_coeff 737 harmonic    3.38700000e+02    1.09100000e+00
bond_coeff 738 harmonic    3.38700000e+02    1.09100000e+00
bond_coeff 739 harmonic    3.30600000e+02    1.09690000e+00
bond_coeff 740 harmonic    3.30600000e+02    1.09690000e+00
bond_coeff 741 harmonic    3.30600000e+02    1.09690000e+00
bond_coeff 742 harmonic    3.30600000e+02    1.09690000e+00
bond_coeff 743 harmonic    3.30600000e+02    1.09690000e+00
bond_coeff 744 harmonic    3.00900000e+02    1.53750000e+00
bond_coeff 745 harmonic    3.71600000e+02    1.46710000e+00
bond_coeff 746 harmonic    3.00900000e+02    1.53750000e+00
bond_coeff 747 harmonic    3.00900000e+02    1.53750000e+00
bond_coeff 748 harmonic    9.54600000e+02    1.15350000e+00
bond_coeff 749 harmonic    3.00900000e+02    1.53750000e+00
bond_coeff 750 harmonic    3.30600000e+02    1.09690000e+00
bond_coeff 751 harmonic    3.30600000e+02    1.09690000e+00
bond_coeff 752 harmonic    3.00900000e+02    1.53750000e+00
bond_coeff 753 harmonic    3.30600000e+02    1.09690000e+00
bond_coeff 754 harmonic    3.30600000e+02    1.09690000e+00
bond_coeff 755 harmonic    3.08600000e+02    1.43160000e+00
bond_coeff 756 harmonic    3.30600000e+02    1.09690000e+00
bond_coeff 757 harmonic    3.30600000e+02    1.09690000e+00
bond_coeff 758 harmonic    3.08600000e+02    1.43160000e+00
bond_coeff 759 harmonic    3.30600000e+02    1.09690000e+00
bond_coeff 760 harmonic    3.30600000e+02    1.09690000e+00
bond_coeff 761 harmonic    3.30600000e+02    1.09690000e+00
bond_coeff 762 harmonic    3.30600000e+02    1.09690000e+00
bond_coeff 763 harmonic    3.30600000e+02    1.09690000e+00
bond_coeff 764 harmonic    3.30600000e+02    1.09690000e+00
angle_coeff 1 harmonic    6.66000000e+01    1.20020052e+02
angle_coeff 2 harmonic    4.82000000e+01    1.19880051e+02
angle_coeff 3 harmonic    6.66000000e+01    1.20020052e+02
angle_coeff 4 harmonic    6.43000000e+01    1.20330052e+02
angle_coeff 5 harmonic    4.82000000e+01    1.19880051e+02
angle_coeff 6 harmonic    6.66000000e+01    1.20020052e+02
angle_coeff 7 harmonic    6.66000000e+01    1.20020052e+02
angle_coeff 8 harmonic    4.82000000e+01    1.19880051e+02
angle_coeff 9 harmonic    4.82000000e+01    1.19880051e+02
angle_coeff 10 harmonic    6.66000000e+01    1.20020052e+02
angle_coeff 11 harmonic    4.82000000e+01    1.19880051e+02
angle_coeff 12 harmonic    4.82000000e+01    1.19880051e+02
angle_coeff 13 harmonic    4.82000000e+01    1.19880051e+02
angle_coeff 14 harmonic    6.66000000e+01    1.20020052e+02
angle_coeff 15 harmonic    4.82000000e+01    1.19880051e+02
angle_coeff 16 harmonic    6.43000000e+01    1.20330052e+02
angle_coeff 17 harmonic    4.82000000e+01    1.19880051e+02
angle_coeff 18 harmonic    4.82000000e+01    1.19880051e+02
angle_coeff 19 harmonic    6.26000000e+01    1.22680052e+02
angle_coeff 20 harmonic    6.15000000e+01    1.15050050e+02
angle_coeff 21 harmonic    6.09000000e+01    9.91600426e+01
angle_coeff 22 harmonic    6.18000000e+01    1.23190053e+02
angle_coeff 23 harmonic    6.13000000e+01    1.10270047e+02
angle_coeff 24 harmonic    6.33000000e+01    1.11040048e+02
angle_coeff 25 harmonic    6.29000000e+01    1.11510048e+02
angle_coeff 26 harmonic    6.29000000e+01    1.11510048e+02
angle_coeff 27 harmonic    6.74000000e+01    1.23200053e+02
angle_coeff 28 harmonic    6.89000000e+01    1.10720048e+02
angle_coeff 29 harmonic    4.63000000e+01    1.09800047e+02
angle_coeff 30 harmonic    4.63000000e+01    1.09800047e+02
angle_coeff 31 harmonic    4.63000000e+01    1.09800047e+02
angle_coeff 32 harmonic    4.63000000e+01    1.09800047e+02
angle_coeff 33 harmonic    4.63000000e+01    1.09800047e+02
angle_coeff 34 harmonic    6.29000000e+01    1.11510048e+02
angle_coeff 35 harmonic    6.33000000e+01    1.11040048e+02
angle_coeff 36 harmonic    6.33000000e+01    1.11040048e+02
angle_coeff 37 harmonic    6.33000000e+01    1.15980050e+02
angle_coeff 38 harmonic    7.53000000e+01    1.23250052e+02
angle_coeff 39 harmonic    6.80000000e+01    1.07970046e+02
angle_coeff 40 harmonic    5.08000000e+01    1.09780047e+02
angle_coeff 41 harmonic    5.08000000e+01    1.09780047e+02
angle_coeff 42 harmonic    4.62000000e+01    1.10560047e+02
angle_coeff 43 harmonic    6.42000000e+01    1.14210049e+02
angle_coeff 44 harmonic    4.62000000e+01    1.10560047e+02
angle_coeff 45 harmonic    4.64000000e+01    1.09560047e+02
angle_coeff 46 harmonic    4.64000000e+01    1.09560047e+02
angle_coeff 47 harmonic    6.26000000e+01    1.09660047e+02
angle_coeff 48 harmonic    6.26000000e+01    1.09660047e+02
angle_coeff 49 harmonic    6.26000000e+01    1.09660047e+02
angle_coeff 50 harmonic    4.86000000e+01    1.08010046e+02
angle_coeff 51 harmonic    3.92000000e+01    1.09750047e+02
angle_coeff 52 harmonic    4.86000000e+01    1.08010046e+02
angle_coeff 53 harmonic    4.86000000e+01    1.08010046e+02
angle_coeff 54 harmonic    4.86000000e+01    1.08010046e+02
angle_coeff 55 harmonic    4.86000000e+01    1.08010046e+02
angle_coeff 56 harmonic    4.86000000e+01    1.08010046e+02
angle_coeff 57 harmonic    4.86000000e+01    1.08010046e+02
angle_coeff 58 harmonic    4.86000000e+01    1.08010046e+02
angle_coeff 59 harmonic    4.86000000e+01    1.08010046e+02
angle_coeff 60 harmonic    4.86000000e+01    1.08010046e+02
angle_coeff 61 harmonic    4.86000000e+01    1.08010046e+02
angle_coeff 62 harmonic    6.26000000e+01    1.09660047e+02
angle_coeff 63 harmonic    6.26000000e+01    1.09660047e+02
angle_coeff 64 harmonic    3.92000000e+01    1.09750047e+02
angle_coeff 65 harmonic    3.92000000e+01    1.09750047e+02
angle_coeff 66 harmonic    3.92000000e+01    1.09750047e+02
angle_coeff 67 harmonic    6.26000000e+01    1.09660047e+02
angle_coeff 68 harmonic    3.92000000e+01    1.09750047e+02
angle_coeff 69 harmonic    3.92000000e+01    1.09750047e+02
angle_coeff 70 harmonic    3.92000000e+01    1.09750047e+02
angle_coeff 71 harmonic    3.92000000e+01    1.09750047e+02
angle_coeff 72 harmonic    3.92000000e+01    1.09750047e+02
angle_coeff 73 harmonic    3.92000000e+01    1.09750047e+02
angle_coeff 74 harmonic    3.92000000e+01    1.08460047e+02
angle_coeff 75 harmonic    6.29000000e+01    1.11510048e+02
angle_coeff 76 harmonic    3.94000000e+01    1.07580046e+02
angle_coeff 77 harmonic    3.94000000e+01    1.07580046e+02
angle_coeff 78 harmonic    3.94000000e+01    1.07580046e+02
angle_coeff 79 harmonic    6.33000000e+01    1.11040048e+02
angle_coeff 80 harmonic    6.29000000e+01    1.11510048e+02
angle_coeff 81 harmonic    6.29000000e+01    1.11510048e+02
angle_coeff 82 harmonic    3.94000000e+01    1.07580046e+02
angle_coeff 83 harmonic    4.63000000e+01    1.09800047e+02
angle_coeff 84 harmonic    4.63000000e+01    1.09800047e+02
angle_coeff 85 harmonic    6.89000000e+01    1.10720048e+02
angle_coeff 86 harmonic    6.74000000e+01    1.23200053e+02
angle_coeff 87 harmonic    4.63000000e+01    1.09800047e+02
angle_coeff 88 harmonic    4.63000000e+01    1.09800047e+02
angle_coeff 89 harmonic    4.63000000e+01    1.09800047e+02
angle_coeff 90 harmonic    4.63000000e+01    1.09800047e+02
angle_coeff 91 harmonic    4.63000000e+01    1.09800047e+02
angle_coeff 92 harmonic    6.29000000e+01    1.11510048e+02
angle_coeff 93 harmonic    6.33000000e+01    1.11040048e+02
angle_coeff 94 harmonic    6.33000000e+01    1.11040048e+02
angle_coeff 95 harmonic    6.33000000e+01    1.15980050e+02
angle_coeff 96 harmonic    7.53000000e+01    1.23250052e+02
angle_coeff 97 harmonic    6.80000000e+01    1.07970046e+02
angle_coeff 98 harmonic    5.08000000e+01    1.09780047e+02
angle_coeff 99 harmonic    5.08000000e+01    1.09780047e+02
angle_coeff 100 harmonic    4.63000000e+01    1.09800047e+02
angle_coeff 101 harmonic    6.29000000e+01    1.11510048e+02
angle_coeff 102 harmonic    4.63000000e+01    1.09800047e+02
angle_coeff 103 harmonic    4.64000000e+01    1.09560047e+02
angle_coeff 104 harmonic    4.64000000e+01    1.09560047e+02
angle_coeff 105 harmonic    6.21000000e+01    1.10220048e+02
angle_coeff 106 harmonic    4.64000000e+01    1.09560047e+02
angle_coeff 107 harmonic    4.64000000e+01    1.09560047e+02
angle_coeff 108 harmonic    4.63000000e+01    1.09800047e+02
angle_coeff 109 harmonic    3.94000000e+01    1.07580046e+02
angle_coeff 110 harmonic    4.63000000e+01    1.09800047e+02
angle_coeff 111 harmonic    6.54000000e+01    1.08610046e+02
angle_coeff 112 harmonic    1.63000000e+01    1.08190046e+02
angle_coeff 113 harmonic    6.54000000e+01    1.08610046e+02
angle_coeff 114 harmonic    4.32000000e+01    1.07150046e+02
angle_coeff 115 harmonic    4.32000000e+01    1.07150046e+02
angle_coeff 116 harmonic    6.59000000e+01    1.19630051e+02
angle_coeff 117 harmonic    7.08000000e+01    1.19100051e+02
angle_coeff 118 harmonic    7.36000000e+01    1.20050052e+02
angle_coeff 119 harmonic    7.08000000e+01    1.19100051e+02
angle_coeff 120 harmonic    7.03000000e+01    1.09650047e+02
angle_coeff 121 harmonic    6.41000000e+01    1.02190044e+02
angle_coeff 122 harmonic    7.03000000e+01    1.09650047e+02
angle_coeff 123 harmonic    6.31000000e+01    1.09680047e+02
angle_coeff 124 harmonic    6.31000000e+01    1.09680047e+02
angle_coeff 125 harmonic    6.31000000e+01    1.09680047e+02
angle_coeff 126 harmonic    6.54000000e+01    1.07850047e+02
angle_coeff 127 harmonic    7.25000000e+01    1.21410052e+02
angle_coeff 128 harmonic    6.54000000e+01    1.07850047e+02
angle_coeff 129 harmonic    7.09000000e+01    1.07360046e+02
angle_coeff 130 harmonic    7.09000000e+01    1.07360046e+02
angle_coeff 131 harmonic    7.09000000e+01    1.07360046e+02
angle_coeff 132 harmonic    3.92000000e+01    1.08460047e+02
angle_coeff 133 harmonic    3.92000000e+01    1.08460047e+02
angle_coeff 134 harmonic    6.29000000e+01    1.11510048e+02
angle_coeff 135 harmonic    3.94000000e+01    1.07580046e+02
angle_coeff 136 harmonic    3.94000000e+01    1.07580046e+02
angle_coeff 137 harmonic    3.94000000e+01    1.07580046e+02
angle_coeff 138 harmonic    6.33000000e+01    1.11040048e+02
angle_coeff 139 harmonic    6.29000000e+01    1.11510048e+02
angle_coeff 140 harmonic    6.29000000e+01    1.11510048e+02
angle_coeff 141 harmonic    3.94000000e+01    1.07580046e+02
angle_coeff 142 harmonic    4.63000000e+01    1.09800047e+02
angle_coeff 143 harmonic    4.63000000e+01    1.09800047e+02
angle_coeff 144 harmonic    6.74000000e+01    1.23200053e+02
angle_coeff 145 harmonic    6.89000000e+01    1.10720048e+02
angle_coeff 146 harmonic    4.63000000e+01    1.09800047e+02
angle_coeff 147 harmonic    4.63000000e+01    1.09800047e+02
angle_coeff 148 harmonic    4.63000000e+01    1.09800047e+02
angle_coeff 149 harmonic    4.63000000e+01    1.09800047e+02
angle_coeff 150 harmonic    4.63000000e+01    1.09800047e+02
angle_coeff 151 harmonic    6.29000000e+01    1.11510048e+02
angle_coeff 152 harmonic    6.33000000e+01    1.11040048e+02
angle_coeff 153 harmonic    6.33000000e+01    1.11040048e+02
angle_coeff 154 harmonic    6.33000000e+01    1.15980050e+02
angle_coeff 155 harmonic    7.53000000e+01    1.23250052e+02
angle_coeff 156 harmonic    6.80000000e+01    1.07970046e+02
angle_coeff 157 harmonic    5.08000000e+01    1.09780047e+02
angle_coeff 158 harmonic    5.08000000e+01    1.09780047e+02
angle_coeff 159 harmonic    4.62000000e+01    1.10560047e+02
angle_coeff 160 harmonic    6.42000000e+01    1.14210049e+02
angle_coeff 161 harmonic    4.62000000e+01    1.10560047e+02
angle_coeff 162 harmonic    4.64000000e+01    1.09560047e+02
angle_coeff 163 harmonic    4.64000000e+01    1.09560047e+02
angle_coeff 164 harmonic    6.26000000e+01    1.09660047e+02
angle_coeff 165 harmonic    6.26000000e+01    1.09660047e+02
angle_coeff 166 harmonic    6.26000000e+01    1.09660047e+02
angle_coeff 167 harmonic    4.86000000e+01    1.08010046e+02
angle_coeff 168 harmonic    3.92000000e+01    1.09750047e+02
angle_coeff 169 harmonic    4.86000000e+01    1.08010046e+02
angle_coeff 170 harmonic    4.86000000e+01    1.08010046e+02
angle_coeff 171 harmonic    4.86000000e+01    1.08010046e+02
angle_coeff 172 harmonic    4.86000000e+01    1.08010046e+02
angle_coeff 173 harmonic    4.86000000e+01    1.08010046e+02
angle_coeff 174 harmonic    4.86000000e+01    1.08010046e+02
angle_coeff 175 harmonic    4.86000000e+01    1.08010046e+02
angle_coeff 176 harmonic    4.86000000e+01    1.08010046e+02
angle_coeff 177 harmonic    4.86000000e+01    1.08010046e+02
angle_coeff 178 harmonic    4.86000000e+01    1.08010046e+02
angle_coeff 179 harmonic    6.26000000e+01    1.09660047e+02
angle_coeff 180 harmonic    6.26000000e+01    1.09660047e+02
angle_coeff 181 harmonic    3.92000000e+01    1.09750047e+02
angle_coeff 182 harmonic    3.92000000e+01    1.09750047e+02
angle_coeff 183 harmonic    3.92000000e+01    1.09750047e+02
angle_coeff 184 harmonic    6.26000000e+01    1.09660047e+02
angle_coeff 185 harmonic    3.92000000e+01    1.09750047e+02
angle_coeff 186 harmonic    3.92000000e+01    1.09750047e+02
angle_coeff 187 harmonic    3.92000000e+01    1.09750047e+02
angle_coeff 188 harmonic    3.92000000e+01    1.09750047e+02
angle_coeff 189 harmonic    3.92000000e+01    1.09750047e+02
angle_coeff 190 harmonic    3.92000000e+01    1.09750047e+02
angle_coeff 191 harmonic    3.92000000e+01    1.08460047e+02
angle_coeff 192 harmonic    6.29000000e+01    1.11510048e+02
angle_coeff 193 harmonic    3.94000000e+01    1.07580046e+02
angle_coeff 194 harmonic    3.94000000e+01    1.07580046e+02
angle_coeff 195 harmonic    3.94000000e+01    1.07580046e+02
angle_coeff 196 harmonic    6.33000000e+01    1.11040048e+02
angle_coeff 197 harmonic    6.29000000e+01    1.11510048e+02
angle_coeff 198 harmonic    6.29000000e+01    1.11510048e+02
angle_coeff 199 harmonic    3.94000000e+01    1.07580046e+02
angle_coeff 200 harmonic    4.63000000e+01    1.09800047e+02
angle_coeff 201 harmonic    4.63000000e+01    1.09800047e+02
angle_coeff 202 harmonic    6.74000000e+01    1.23200053e+02
angle_coeff 203 harmonic    6.89000000e+01    1.10720048e+02
angle_coeff 204 harmonic    4.63000000e+01    1.09800047e+02
angle_coeff 205 harmonic    4.63000000e+01    1.09800047e+02
angle_coeff 206 harmonic    4.63000000e+01    1.09800047e+02
angle_coeff 207 harmonic    4.63000000e+01    1.09800047e+02
angle_coeff 208 harmonic    4.63000000e+01    1.09800047e+02
angle_coeff 209 harmonic    6.29000000e+01    1.11510048e+02
angle_coeff 210 harmonic    6.33000000e+01    1.11040048e+02
angle_coeff 211 harmonic    6.33000000e+01    1.11040048e+02
angle_coeff 212 harmonic    6.33000000e+01    1.15980050e+02
angle_coeff 213 harmonic    7.53000000e+01    1.23250052e+02
angle_coeff 214 harmonic    6.80000000e+01    1.07970046e+02
angle_coeff 215 harmonic    5.08000000e+01    1.09780047e+02
angle_coeff 216 harmonic    5.08000000e+01    1.09780047e+02
angle_coeff 217 harmonic    4.62000000e+01    1.10560047e+02
angle_coeff 218 harmonic    6.42000000e+01    1.14210049e+02
angle_coeff 219 harmonic    4.62000000e+01    1.10560047e+02
angle_coeff 220 harmonic    4.64000000e+01    1.09560047e+02
angle_coeff 221 harmonic    4.64000000e+01    1.09560047e+02
angle_coeff 222 harmonic    6.26000000e+01    1.09660047e+02
angle_coeff 223 harmonic    6.26000000e+01    1.09660047e+02
angle_coeff 224 harmonic    6.26000000e+01    1.09660047e+02
angle_coeff 225 harmonic    4.86000000e+01    1.08010046e+02
angle_coeff 226 harmonic    3.92000000e+01    1.09750047e+02
angle_coeff 227 harmonic    4.86000000e+01    1.08010046e+02
angle_coeff 228 harmonic    4.86000000e+01    1.08010046e+02
angle_coeff 229 harmonic    4.86000000e+01    1.08010046e+02
angle_coeff 230 harmonic    4.86000000e+01    1.08010046e+02
angle_coeff 231 harmonic    4.86000000e+01    1.08010046e+02
angle_coeff 232 harmonic    4.86000000e+01    1.08010046e+02
angle_coeff 233 harmonic    4.86000000e+01    1.08010046e+02
angle_coeff 234 harmonic    4.86000000e+01    1.08010046e+02
angle_coeff 235 harmonic    4.86000000e+01    1.08010046e+02
angle_coeff 236 harmonic    4.86000000e+01    1.08010046e+02
angle_coeff 237 harmonic    6.26000000e+01    1.09660047e+02
angle_coeff 238 harmonic    6.26000000e+01    1.09660047e+02
angle_coeff 239 harmonic    3.92000000e+01    1.09750047e+02
angle_coeff 240 harmonic    3.92000000e+01    1.09750047e+02
angle_coeff 241 harmonic    3.92000000e+01    1.09750047e+02
angle_coeff 242 harmonic    6.26000000e+01    1.09660047e+02
angle_coeff 243 harmonic    3.92000000e+01    1.09750047e+02
angle_coeff 244 harmonic    3.92000000e+01    1.09750047e+02
angle_coeff 245 harmonic    3.92000000e+01    1.09750047e+02
angle_coeff 246 harmonic    3.92000000e+01    1.09750047e+02
angle_coeff 247 harmonic    3.92000000e+01    1.09750047e+02
angle_coeff 248 harmonic    3.92000000e+01    1.09750047e+02
angle_coeff 249 harmonic    3.92000000e+01    1.08460047e+02
angle_coeff 250 harmonic    6.29000000e+01    1.11510048e+02
angle_coeff 251 harmonic    3.94000000e+01    1.07580046e+02
angle_coeff 252 harmonic    3.94000000e+01    1.07580046e+02
angle_coeff 253 harmonic    3.94000000e+01    1.07580046e+02
angle_coeff 254 harmonic    6.33000000e+01    1.11040048e+02
angle_coeff 255 harmonic    6.29000000e+01    1.11510048e+02
angle_coeff 256 harmonic    6.29000000e+01    1.11510048e+02
angle_coeff 257 harmonic    3.94000000e+01    1.07580046e+02
angle_coeff 258 harmonic    4.63000000e+01    1.09800047e+02
angle_coeff 259 harmonic    4.63000000e+01    1.09800047e+02
angle_coeff 260 harmonic    6.89000000e+01    1.10720048e+02
angle_coeff 261 harmonic    6.74000000e+01    1.23200053e+02
angle_coeff 262 harmonic    4.63000000e+01    1.09800047e+02
angle_coeff 263 harmonic    4.63000000e+01    1.09800047e+02
angle_coeff 264 harmonic    4.63000000e+01    1.09800047e+02
angle_coeff 265 harmonic    4.63000000e+01    1.09800047e+02
angle_coeff 266 harmonic    4.63000000e+01    1.09800047e+02
angle_coeff 267 harmonic    6.29000000e+01    1.11510048e+02
angle_coeff 268 harmonic    6.33000000e+01    1.11040048e+02
angle_coeff 269 harmonic    6.33000000e+01    1.11040048e+02
angle_coeff 270 harmonic    6.33000000e+01    1.15980050e+02
angle_coeff 271 harmonic    7.53000000e+01    1.23250052e+02
angle_coeff 272 harmonic    6.80000000e+01    1.07970046e+02
angle_coeff 273 harmonic    5.08000000e+01    1.09780047e+02
angle_coeff 274 harmonic    5.08000000e+01    1.09780047e+02
angle_coeff 275 harmonic    4.63000000e+01    1.09800047e+02
angle_coeff 276 harmonic    6.29000000e+01    1.11510048e+02
angle_coeff 277 harmonic    4.63000000e+01    1.09800047e+02
angle_coeff 278 harmonic    4.64000000e+01    1.09560047e+02
angle_coeff 279 harmonic    4.64000000e+01    1.09560047e+02
angle_coeff 280 harmonic    6.21000000e+01    1.10220048e+02
angle_coeff 281 harmonic    4.64000000e+01    1.09560047e+02
angle_coeff 282 harmonic    4.64000000e+01    1.09560047e+02
angle_coeff 283 harmonic    4.63000000e+01    1.09800047e+02
angle_coeff 284 harmonic    3.94000000e+01    1.07580046e+02
angle_coeff 285 harmonic    4.63000000e+01    1.09800047e+02
angle_coeff 286 harmonic    6.54000000e+01    1.08610046e+02
angle_coeff 287 harmonic    1.63000000e+01    1.08190046e+02
angle_coeff 288 harmonic    6.54000000e+01    1.08610046e+02
angle_coeff 289 harmonic    4.32000000e+01    1.07150046e+02
angle_coeff 290 harmonic    4.32000000e+01    1.07150046e+02
angle_coeff 291 harmonic    6.59000000e+01    1.19630051e+02
angle_coeff 292 harmonic    7.08000000e+01    1.19100051e+02
angle_coeff 293 harmonic    7.36000000e+01    1.20050052e+02
angle_coeff 294 harmonic    7.08000000e+01    1.19100051e+02
angle_coeff 295 harmonic    7.03000000e+01    1.09650047e+02
angle_coeff 296 harmonic    6.41000000e+01    1.02190044e+02
angle_coeff 297 harmonic    7.03000000e+01    1.09650047e+02
angle_coeff 298 harmonic    6.31000000e+01    1.09680047e+02
angle_coeff 299 harmonic    6.31000000e+01    1.09680047e+02
angle_coeff 300 harmonic    6.31000000e+01    1.09680047e+02
angle_coeff 301 harmonic    6.54000000e+01    1.07850047e+02
angle_coeff 302 harmonic    7.25000000e+01    1.21410052e+02
angle_coeff 303 harmonic    6.54000000e+01    1.07850047e+02
angle_coeff 304 harmonic    7.09000000e+01    1.07360046e+02
angle_coeff 305 harmonic    7.09000000e+01    1.07360046e+02
angle_coeff 306 harmonic    7.09000000e+01    1.07360046e+02
angle_coeff 307 harmonic    3.92000000e+01    1.08460047e+02
angle_coeff 308 harmonic    3.92000000e+01    1.08460047e+02
angle_coeff 309 harmonic    6.29000000e+01    1.11510048e+02
angle_coeff 310 harmonic    3.94000000e+01    1.07580046e+02
angle_coeff 311 harmonic    3.94000000e+01    1.07580046e+02
angle_coeff 312 harmonic    3.94000000e+01    1.07580046e+02
angle_coeff 313 harmonic    6.33000000e+01    1.11040048e+02
angle_coeff 314 harmonic    6.29000000e+01    1.11510048e+02
angle_coeff 315 harmonic    6.29000000e+01    1.11510048e+02
angle_coeff 316 harmonic    3.94000000e+01    1.07580046e+02
angle_coeff 317 harmonic    4.63000000e+01    1.09800047e+02
angle_coeff 318 harmonic    4.63000000e+01    1.09800047e+02
angle_coeff 319 harmonic    6.74000000e+01    1.23200053e+02
angle_coeff 320 harmonic    6.89000000e+01    1.10720048e+02
angle_coeff 321 harmonic    4.63000000e+01    1.09800047e+02
angle_coeff 322 harmonic    4.63000000e+01    1.09800047e+02
angle_coeff 323 harmonic    4.63000000e+01    1.09800047e+02
angle_coeff 324 harmonic    4.63000000e+01    1.09800047e+02
angle_coeff 325 harmonic    4.63000000e+01    1.09800047e+02
angle_coeff 326 harmonic    6.29000000e+01    1.11510048e+02
angle_coeff 327 harmonic    6.33000000e+01    1.11040048e+02
angle_coeff 328 harmonic    6.33000000e+01    1.11040048e+02
angle_coeff 329 harmonic    6.33000000e+01    1.15980050e+02
angle_coeff 330 harmonic    7.53000000e+01    1.23250052e+02
angle_coeff 331 harmonic    6.80000000e+01    1.07970046e+02
angle_coeff 332 harmonic    5.08000000e+01    1.09780047e+02
angle_coeff 333 harmonic    5.08000000e+01    1.09780047e+02
angle_coeff 334 harmonic    4.62000000e+01    1.10560047e+02
angle_coeff 335 harmonic    6.42000000e+01    1.14210049e+02
angle_coeff 336 harmonic    4.62000000e+01    1.10560047e+02
angle_coeff 337 harmonic    4.64000000e+01    1.09560047e+02
angle_coeff 338 harmonic    4.64000000e+01    1.09560047e+02
angle_coeff 339 harmonic    6.26000000e+01    1.09660047e+02
angle_coeff 340 harmonic    6.26000000e+01    1.09660047e+02
angle_coeff 341 harmonic    6.26000000e+01    1.09660047e+02
angle_coeff 342 harmonic    4.86000000e+01    1.08010046e+02
angle_coeff 343 harmonic    3.92000000e+01    1.09750047e+02
angle_coeff 344 harmonic    4.86000000e+01    1.08010046e+02
angle_coeff 345 harmonic    4.86000000e+01    1.08010046e+02
angle_coeff 346 harmonic    4.86000000e+01    1.08010046e+02
angle_coeff 347 harmonic    4.86000000e+01    1.08010046e+02
angle_coeff 348 harmonic    4.86000000e+01    1.08010046e+02
angle_coeff 349 harmonic    4.86000000e+01    1.08010046e+02
angle_coeff 350 harmonic    4.86000000e+01    1.08010046e+02
angle_coeff 351 harmonic    4.86000000e+01    1.08010046e+02
angle_coeff 352 harmonic    4.86000000e+01    1.08010046e+02
angle_coeff 353 harmonic    4.86000000e+01    1.08010046e+02
angle_coeff 354 harmonic    6.26000000e+01    1.09660047e+02
angle_coeff 355 harmonic    6.26000000e+01    1.09660047e+02
angle_coeff 356 harmonic    3.92000000e+01    1.09750047e+02
angle_coeff 357 harmonic    3.92000000e+01    1.09750047e+02
angle_coeff 358 harmonic    3.92000000e+01    1.09750047e+02
angle_coeff 359 harmonic    6.26000000e+01    1.09660047e+02
angle_coeff 360 harmonic    3.92000000e+01    1.09750047e+02
angle_coeff 361 harmonic    3.92000000e+01    1.09750047e+02
angle_coeff 362 harmonic    3.92000000e+01    1.09750047e+02
angle_coeff 363 harmonic    3.92000000e+01    1.09750047e+02
angle_coeff 364 harmonic    3.92000000e+01    1.09750047e+02
angle_coeff 365 harmonic    3.92000000e+01    1.09750047e+02
angle_coeff 366 harmonic    3.92000000e+01    1.08460047e+02
angle_coeff 367 harmonic    6.29000000e+01    1.11510048e+02
angle_coeff 368 harmonic    3.94000000e+01    1.07580046e+02
angle_coeff 369 harmonic    3.94000000e+01    1.07580046e+02
angle_coeff 370 harmonic    3.94000000e+01    1.07580046e+02
angle_coeff 371 harmonic    6.33000000e+01    1.11040048e+02
angle_coeff 372 harmonic    6.29000000e+01    1.11510048e+02
angle_coeff 373 harmonic    6.29000000e+01    1.11510048e+02
angle_coeff 374 harmonic    3.94000000e+01    1.07580046e+02
angle_coeff 375 harmonic    4.63000000e+01    1.09800047e+02
angle_coeff 376 harmonic    4.63000000e+01    1.09800047e+02
angle_coeff 377 harmonic    6.74000000e+01    1.23200053e+02
angle_coeff 378 harmonic    6.89000000e+01    1.10720048e+02
angle_coeff 379 harmonic    4.63000000e+01    1.09800047e+02
angle_coeff 380 harmonic    4.63000000e+01    1.09800047e+02
angle_coeff 381 harmonic    4.63000000e+01    1.09800047e+02
angle_coeff 382 harmonic    4.63000000e+01    1.09800047e+02
angle_coeff 383 harmonic    4.63000000e+01    1.09800047e+02
angle_coeff 384 harmonic    6.29000000e+01    1.11510048e+02
angle_coeff 385 harmonic    6.33000000e+01    1.11040048e+02
angle_coeff 386 harmonic    6.33000000e+01    1.11040048e+02
angle_coeff 387 harmonic    6.33000000e+01    1.15980050e+02
angle_coeff 388 harmonic    7.53000000e+01    1.23250052e+02
angle_coeff 389 harmonic    6.80000000e+01    1.07970046e+02
angle_coeff 390 harmonic    5.08000000e+01    1.09780047e+02
angle_coeff 391 harmonic    5.08000000e+01    1.09780047e+02
angle_coeff 392 harmonic    4.62000000e+01    1.10560047e+02
angle_coeff 393 harmonic    6.42000000e+01    1.14210049e+02
angle_coeff 394 harmonic    4.62000000e+01    1.10560047e+02
angle_coeff 395 harmonic    4.64000000e+01    1.09560047e+02
angle_coeff 396 harmonic    4.64000000e+01    1.09560047e+02
angle_coeff 397 harmonic    6.26000000e+01    1.09660047e+02
angle_coeff 398 harmonic    6.26000000e+01    1.09660047e+02
angle_coeff 399 harmonic    6.26000000e+01    1.09660047e+02
angle_coeff 400 harmonic    4.86000000e+01    1.08010046e+02
angle_coeff 401 harmonic    3.92000000e+01    1.09750047e+02
angle_coeff 402 harmonic    4.86000000e+01    1.08010046e+02
angle_coeff 403 harmonic    4.86000000e+01    1.08010046e+02
angle_coeff 404 harmonic    4.86000000e+01    1.08010046e+02
angle_coeff 405 harmonic    4.86000000e+01    1.08010046e+02
angle_coeff 406 harmonic    4.86000000e+01    1.08010046e+02
angle_coeff 407 harmonic    4.86000000e+01    1.08010046e+02
angle_coeff 408 harmonic    4.86000000e+01    1.08010046e+02
angle_coeff 409 harmonic    4.86000000e+01    1.08010046e+02
angle_coeff 410 harmonic    4.86000000e+01    1.08010046e+02
angle_coeff 411 harmonic    4.86000000e+01    1.08010046e+02
angle_coeff 412 harmonic    6.26000000e+01    1.09660047e+02
angle_coeff 413 harmonic    6.26000000e+01    1.09660047e+02
angle_coeff 414 harmonic    3.92000000e+01    1.09750047e+02
angle_coeff 415 harmonic    3.92000000e+01    1.09750047e+02
angle_coeff 416 harmonic    3.92000000e+01    1.09750047e+02
angle_coeff 417 harmonic    6.26000000e+01    1.09660047e+02
angle_coeff 418 harmonic    3.92000000e+01    1.09750047e+02
angle_coeff 419 harmonic    3.92000000e+01    1.09750047e+02
angle_coeff 420 harmonic    3.92000000e+01    1.09750047e+02
angle_coeff 421 harmonic    3.92000000e+01    1.09750047e+02
angle_coeff 422 harmonic    3.92000000e+01    1.09750047e+02
angle_coeff 423 harmonic    3.92000000e+01    1.09750047e+02
angle_coeff 424 harmonic    3.92000000e+01    1.08460047e+02
angle_coeff 425 harmonic    6.29000000e+01    1.11510048e+02
angle_coeff 426 harmonic    3.94000000e+01    1.07580046e+02
angle_coeff 427 harmonic    3.94000000e+01    1.07580046e+02
angle_coeff 428 harmonic    3.94000000e+01    1.07580046e+02
angle_coeff 429 harmonic    6.33000000e+01    1.11040048e+02
angle_coeff 430 harmonic    6.29000000e+01    1.11510048e+02
angle_coeff 431 harmonic    6.29000000e+01    1.11510048e+02
angle_coeff 432 harmonic    3.94000000e+01    1.07580046e+02
angle_coeff 433 harmonic    4.63000000e+01    1.09800047e+02
angle_coeff 434 harmonic    4.63000000e+01    1.09800047e+02
angle_coeff 435 harmonic    6.89000000e+01    1.10720048e+02
angle_coeff 436 harmonic    6.74000000e+01    1.23200053e+02
angle_coeff 437 harmonic    4.63000000e+01    1.09800047e+02
angle_coeff 438 harmonic    4.63000000e+01    1.09800047e+02
angle_coeff 439 harmonic    4.63000000e+01    1.09800047e+02
angle_coeff 440 harmonic    4.63000000e+01    1.09800047e+02
angle_coeff 441 harmonic    4.63000000e+01    1.09800047e+02
angle_coeff 442 harmonic    6.29000000e+01    1.11510048e+02
angle_coeff 443 harmonic    6.33000000e+01    1.11040048e+02
angle_coeff 444 harmonic    6.33000000e+01    1.11040048e+02
angle_coeff 445 harmonic    6.33000000e+01    1.15980050e+02
angle_coeff 446 harmonic    7.53000000e+01    1.23250052e+02
angle_coeff 447 harmonic    6.80000000e+01    1.07970046e+02
angle_coeff 448 harmonic    5.08000000e+01    1.09780047e+02
angle_coeff 449 harmonic    5.08000000e+01    1.09780047e+02
angle_coeff 450 harmonic    4.63000000e+01    1.09800047e+02
angle_coeff 451 harmonic    6.29000000e+01    1.11510048e+02
angle_coeff 452 harmonic    4.63000000e+01    1.09800047e+02
angle_coeff 453 harmonic    4.64000000e+01    1.09560047e+02
angle_coeff 454 harmonic    4.64000000e+01    1.09560047e+02
angle_coeff 455 harmonic    6.21000000e+01    1.10220048e+02
angle_coeff 456 harmonic    4.64000000e+01    1.09560047e+02
angle_coeff 457 harmonic    4.64000000e+01    1.09560047e+02
angle_coeff 458 harmonic    4.63000000e+01    1.09800047e+02
angle_coeff 459 harmonic    3.94000000e+01    1.07580046e+02
angle_coeff 460 harmonic    4.63000000e+01    1.09800047e+02
angle_coeff 461 harmonic    6.54000000e+01    1.08610046e+02
angle_coeff 462 harmonic    1.63000000e+01    1.08190046e+02
angle_coeff 463 harmonic    6.54000000e+01    1.08610046e+02
angle_coeff 464 harmonic    4.32000000e+01    1.07150046e+02
angle_coeff 465 harmonic    4.32000000e+01    1.07150046e+02
angle_coeff 466 harmonic    6.59000000e+01    1.19630051e+02
angle_coeff 467 harmonic    7.08000000e+01    1.19100051e+02
angle_coeff 468 harmonic    7.36000000e+01    1.20050052e+02
angle_coeff 469 harmonic    7.08000000e+01    1.19100051e+02
angle_coeff 470 harmonic    7.03000000e+01    1.09650047e+02
angle_coeff 471 harmonic    6.41000000e+01    1.02190044e+02
angle_coeff 472 harmonic    7.03000000e+01    1.09650047e+02
angle_coeff 473 harmonic    6.31000000e+01    1.09680047e+02
angle_coeff 474 harmonic    6.31000000e+01    1.09680047e+02
angle_coeff 475 harmonic    6.31000000e+01    1.09680047e+02
angle_coeff 476 harmonic    6.54000000e+01    1.07850047e+02
angle_coeff 477 harmonic    7.25000000e+01    1.21410052e+02
angle_coeff 478 harmonic    6.54000000e+01    1.07850047e+02
angle_coeff 479 harmonic    7.09000000e+01    1.07360046e+02
angle_coeff 480 harmonic    7.09000000e+01    1.07360046e+02
angle_coeff 481 harmonic    7.09000000e+01    1.07360046e+02
angle_coeff 482 harmonic    3.92000000e+01    1.08460047e+02
angle_coeff 483 harmonic    3.92000000e+01    1.08460047e+02
angle_coeff 484 harmonic    6.29000000e+01    1.11510048e+02
angle_coeff 485 harmonic    3.94000000e+01    1.07580046e+02
angle_coeff 486 harmonic    3.94000000e+01    1.07580046e+02
angle_coeff 487 harmonic    3.94000000e+01    1.07580046e+02
angle_coeff 488 harmonic    6.33000000e+01    1.11040048e+02
angle_coeff 489 harmonic    6.29000000e+01    1.11510048e+02
angle_coeff 490 harmonic    6.29000000e+01    1.11510048e+02
angle_coeff 491 harmonic    3.94000000e+01    1.07580046e+02
angle_coeff 492 harmonic    4.63000000e+01    1.09800047e+02
angle_coeff 493 harmonic    4.63000000e+01    1.09800047e+02
angle_coeff 494 harmonic    6.74000000e+01    1.23200053e+02
angle_coeff 495 harmonic    6.89000000e+01    1.10720048e+02
angle_coeff 496 harmonic    4.63000000e+01    1.09800047e+02
angle_coeff 497 harmonic    4.63000000e+01    1.09800047e+02
angle_coeff 498 harmonic    4.63000000e+01    1.09800047e+02
angle_coeff 499 harmonic    4.63000000e+01    1.09800047e+02
angle_coeff 500 harmonic    4.63000000e+01    1.09800047e+02
angle_coeff 501 harmonic    6.29000000e+01    1.11510048e+02
angle_coeff 502 harmonic    6.33000000e+01    1.11040048e+02
angle_coeff 503 harmonic    6.33000000e+01    1.11040048e+02
angle_coeff 504 harmonic    6.33000000e+01    1.15980050e+02
angle_coeff 505 harmonic    7.53000000e+01    1.23250052e+02
angle_coeff 506 harmonic    6.80000000e+01    1.07970046e+02
angle_coeff 507 harmonic    5.08000000e+01    1.09780047e+02
angle_coeff 508 harmonic    5.08000000e+01    1.09780047e+02
angle_coeff 509 harmonic    4.62000000e+01    1.10560047e+02
angle_coeff 510 harmonic    6.42000000e+01    1.14210049e+02
angle_coeff 511 harmonic    4.62000000e+01    1.10560047e+02
angle_coeff 512 harmonic    4.64000000e+01    1.09560047e+02
angle_coeff 513 harmonic    4.64000000e+01    1.09560047e+02
angle_coeff 514 harmonic    6.26000000e+01    1.09660047e+02
angle_coeff 515 harmonic    6.26000000e+01    1.09660047e+02
angle_coeff 516 harmonic    6.26000000e+01    1.09660047e+02
angle_coeff 517 harmonic    4.86000000e+01    1.08010046e+02
angle_coeff 518 harmonic    3.92000000e+01    1.09750047e+02
angle_coeff 519 harmonic    4.86000000e+01    1.08010046e+02
angle_coeff 520 harmonic    4.86000000e+01    1.08010046e+02
angle_coeff 521 harmonic    4.86000000e+01    1.08010046e+02
angle_coeff 522 harmonic    4.86000000e+01    1.08010046e+02
angle_coeff 523 harmonic    4.86000000e+01    1.08010046e+02
angle_coeff 524 harmonic    4.86000000e+01    1.08010046e+02
angle_coeff 525 harmonic    4.86000000e+01    1.08010046e+02
angle_coeff 526 harmonic    4.86000000e+01    1.08010046e+02
angle_coeff 527 harmonic    4.86000000e+01    1.08010046e+02
angle_coeff 528 harmonic    4.86000000e+01    1.08010046e+02
angle_coeff 529 harmonic    6.26000000e+01    1.09660047e+02
angle_coeff 530 harmonic    6.26000000e+01    1.09660047e+02
angle_coeff 531 harmonic    3.92000000e+01    1.09750047e+02
angle_coeff 532 harmonic    3.92000000e+01    1.09750047e+02
[...]
dihedral_coeff 2248 multi/harmonic    1.55555545e-01   -4.66666635e-01    0.00000000e+00    6.22222180e-01    0.00000000e+00
dihedral_coeff 2249 multi/harmonic    1.55555545e-01   -4.66666635e-01    0.00000000e+00    6.22222180e-01    0.00000000e+00
dihedral_coeff 2250 charmm    0.00000000e+00         6       180         0
dihedral_coeff 2251 charmm    0.00000000e+00         6       180         0
dihedral_coeff 2252 multi/harmonic    1.60000000e-01   -4.80000000e-01    0.00000000e+00    6.40000000e-01    0.00000000e+00
dihedral_coeff 2253 multi/harmonic    1.60000000e-01   -4.80000000e-01    0.00000000e+00    6.40000000e-01    0.00000000e+00
dihedral_coeff 2254 charmm    2.00000000e-01         1       180         0
dihedral_coeff 2255 charmm    2.50000000e-01         2       180         0
dihedral_coeff 2256 multi/harmonic    1.80000000e-01   -5.40000000e-01    0.00000000e+00    7.20000000e-01    0.00000000e+00
dihedral_coeff 2257 multi/harmonic    1.60000000e-01   -4.80000000e-01    0.00000000e+00    6.40000000e-01    0.00000000e+00
dihedral_coeff 2258 multi/harmonic    1.60000000e-01   -4.80000000e-01    0.00000000e+00    6.40000000e-01    0.00000000e+00
dihedral_coeff 2259 multi/harmonic    1.60000000e-01   -4.80000000e-01    0.00000000e+00    6.40000000e-01    0.00000000e+00
dihedral_coeff 2260 charmm    0.00000000e+00         6       180         0
dihedral_coeff 2261 charmm    0.00000000e+00         6       180         0
dihedral_coeff 2262 multi/harmonic    1.60000000e-01   -4.80000000e-01    0.00000000e+00    6.40000000e-01    0.00000000e+00
dihedral_coeff 2263 multi/harmonic    1.60000000e-01   -4.80000000e-01    0.00000000e+00    6.40000000e-01    0.00000000e+00
dihedral_coeff 2264 multi/harmonic    1.60000000e-01   -4.80000000e-01    0.00000000e+00    6.40000000e-01    0.00000000e+00
dihedral_coeff 2265 multi/harmonic    1.60000000e-01   -4.80000000e-01    0.00000000e+00    6.40000000e-01    0.00000000e+00
dihedral_coeff 2266 multi/harmonic    1.60000000e-01   -4.80000000e-01    0.00000000e+00    6.40000000e-01    0.00000000e+00
dihedral_coeff 2267 charmm    2.00000000e-01         1       180         0
dihedral_coeff 2268 charmm    2.50000000e-01         2       180         0
dihedral_coeff 2269 multi/harmonic    1.80000000e-01   -5.40000000e-01    0.00000000e+00    7.20000000e-01    0.00000000e+00
dihedral_coeff 2270 multi/harmonic    1.55555545e-01   -4.66666635e-01    0.00000000e+00    6.22222180e-01    0.00000000e+00
dihedral_coeff 2271 multi/harmonic    1.60000000e-01   -4.80000000e-01    0.00000000e+00    6.40000000e-01    0.00000000e+00
dihedral_coeff 2272 multi/harmonic    1.60000000e-01   -4.80000000e-01    0.00000000e+00    6.40000000e-01    0.00000000e+00
dihedral_coeff 2273 multi/harmonic    1.55555545e-01   -4.66666635e-01    0.00000000e+00    6.22222180e-01    0.00000000e+00
dihedral_coeff 2274 multi/harmonic    1.60000000e-01   -4.80000000e-01    0.00000000e+00    6.40000000e-01    0.00000000e+00
dihedral_coeff 2275 multi/harmonic    1.60000000e-01   -4.80000000e-01    0.00000000e+00    6.40000000e-01    0.00000000e+00
dihedral_coeff 2276 multi/harmonic    0.00000000e+00    0.00000000e+00    0.00000000e+00    0.00000000e+00    0.00000000e+00
dihedral_coeff 2277 charmm    2.70000000e+00         2       180         0
dihedral_coeff 2278 multi/harmonic    1.15000000e+00   -3.45000000e+00    0.00000000e+00    4.60000000e+00    0.00000000e+00
dihedral_coeff 2279 charmm    1.10000000e+00         2       180         0
dihedral_coeff 2280 multi/harmonic    1.55555545e-01   -4.66666635e-01    0.00000000e+00    6.22222180e-01    0.00000000e+00
dihedral_coeff 2281 charmm    2.00000000e-01         1       180         0
dihedral_coeff 2282 charmm    2.50000000e-01         2       180         0
dihedral_coeff 2283 multi/harmonic    1.80000000e-01   -5.40000000e-01    0.00000000e+00    7.20000000e-01    0.00000000e+00
dihedral_coeff 2284 charmm    2.00000000e-01         1       180         0
dihedral_coeff 2285 charmm    2.50000000e-01         2       180         0
dihedral_coeff 2286 multi/harmonic    1.80000000e-01   -5.40000000e-01    0.00000000e+00    7.20000000e-01    0.00000000e+00
dihedral_coeff 2287 multi/harmonic    1.55555545e-01   -4.66666635e-01    0.00000000e+00    6.22222180e-01    0.00000000e+00
dihedral_coeff 2288 multi/harmonic    1.55555545e-01   -4.66666635e-01    0.00000000e+00    6.22222180e-01    0.00000000e+00
dihedral_coeff 2289 multi/harmonic    1.55555545e-01   -4.66666635e-01    0.00000000e+00    6.22222180e-01    0.00000000e+00
dihedral_coeff 2290 multi/harmonic    1.55555545e-01   -4.66666635e-01    0.00000000e+00    6.22222180e-01    0.00000000e+00
dihedral_coeff 2291 multi/harmonic    1.55555545e-01   -4.66666635e-01    0.00000000e+00    6.22222180e-01    0.00000000e+00
dihedral_coeff 2292 multi/harmonic    1.55555545e-01   -4.66666635e-01    0.00000000e+00    6.22222180e-01    0.00000000e+00
dihedral_coeff 2293 charmm    8.00000000e-01         1       180         0
dihedral_coeff 2294 multi/harmonic    3.83000000e-01   -1.14900000e+00    0.00000000e+00    1.53200000e+00    0.00000000e+00
dihedral_coeff 2295 multi/harmonic    3.83333341e-01   -1.15000002e+00    0.00000000e+00    1.53333337e+00    0.00000000e+00
dihedral_coeff 2296 multi/harmonic    3.83333341e-01   -1.15000002e+00    0.00000000e+00    1.53333337e+00    0.00000000e+00
dihedral_coeff 2297 charmm    0.00000000e+00         6       180         0
dihedral_coeff 2298 charmm    0.00000000e+00         6       180         0
dihedral_coeff 2299 charmm    1.40000000e+00         1       180         0
dihedral_coeff 2300 charmm    2.70000000e+00         2       180         0
dihedral_coeff 2301 charmm    0.00000000e+00         6       180         0
dihedral_coeff 2302 charmm    0.00000000e+00         6       180         0
dihedral_coeff 2303 multi/harmonic    1.55555545e-01   -4.66666635e-01    0.00000000e+00    6.22222180e-01    0.00000000e+00
dihedral_coeff 2304 multi/harmonic    1.55555545e-01   -4.66666635e-01    0.00000000e+00    6.22222180e-01    0.00000000e+00
dihedral_coeff 2305 multi/harmonic    1.55555545e-01   -4.66666635e-01    0.00000000e+00    6.22222180e-01    0.00000000e+00
dihedral_coeff 2306 multi/harmonic    1.55555545e-01   -4.66666635e-01    0.00000000e+00    6.22222180e-01    0.00000000e+00
dihedral_coeff 2307 multi/harmonic    1.55555545e-01   -4.66666635e-01    0.00000000e+00    6.22222180e-01    0.00000000e+00
dihedral_coeff 2308 multi/harmonic    1.55555545e-01   -4.66666635e-01    0.00000000e+00    6.22222180e-01    0.00000000e+00
dihedral_coeff 2309 multi/harmonic    1.55555545e-01   -4.66666635e-01    0.00000000e+00    6.22222180e-01    0.00000000e+00
dihedral_coeff 2310 multi/harmonic    1.55555545e-01   -4.66666635e-01    0.00000000e+00    6.22222180e-01    0.00000000e+00
dihedral_coeff 2311 multi/harmonic    1.55555545e-01   -4.66666635e-01    0.00000000e+00    6.22222180e-01    0.00000000e+00
dihedral_coeff 2312 multi/harmonic    1.55555545e-01   -4.66666635e-01    0.00000000e+00    6.22222180e-01    0.00000000e+00
dihedral_coeff 2313 multi/harmonic    1.55555545e-01   -4.66666635e-01    0.00000000e+00    6.22222180e-01    0.00000000e+00
dihedral_coeff 2314 multi/harmonic    1.55555545e-01   -4.66666635e-01    0.00000000e+00    6.22222180e-01    0.00000000e+00
dihedral_coeff 2315 multi/harmonic    1.55555545e-01   -4.66666635e-01    0.00000000e+00    6.22222180e-01    0.00000000e+00
dihedral_coeff 2316 multi/harmonic    1.55555545e-01   -4.66666635e-01    0.00000000e+00    6.22222180e-01    0.00000000e+00
dihedral_coeff 2317 multi/harmonic    1.55555545e-01   -4.66666635e-01    0.00000000e+00    6.22222180e-01    0.00000000e+00
dihedral_coeff 2318 multi/harmonic    1.55555545e-01   -4.66666635e-01    0.00000000e+00    6.22222180e-01    0.00000000e+00
dihedral_coeff 2319 multi/harmonic    1.55555545e-01   -4.66666635e-01    0.00000000e+00    6.22222180e-01    0.00000000e+00
dihedral_coeff 2320 multi/harmonic    1.55555545e-01   -4.66666635e-01    0.00000000e+00    6.22222180e-01    0.00000000e+00
dihedral_coeff 2321 multi/harmonic    1.55555545e-01   -4.66666635e-01    0.00000000e+00    6.22222180e-01    0.00000000e+00
dihedral_coeff 2322 multi/harmonic    1.55555545e-01   -4.66666635e-01    0.00000000e+00    6.22222180e-01    0.00000000e+00
dihedral_coeff 2323 multi/harmonic    1.55555545e-01   -4.66666635e-01    0.00000000e+00    6.22222180e-01    0.00000000e+00
dihedral_coeff 2324 multi/harmonic    1.55555545e-01   -4.66666635e-01    0.00000000e+00    6.22222180e-01    0.00000000e+00
dihedral_coeff 2325 multi/harmonic    1.55555545e-01   -4.66666635e-01    0.00000000e+00    6.22222180e-01    0.00000000e+00
dihedral_coeff 2326 multi/harmonic    1.55555545e-01   -4.66666635e-01    0.00000000e+00    6.22222180e-01    0.00000000e+00
dihedral_coeff 2327 multi/harmonic    1.55555545e-01   -4.66666635e-01    0.00000000e+00    6.22222180e-01    0.00000000e+00
dihedral_coeff 2328 multi/harmonic    1.55555545e-01   -4.66666635e-01    0.00000000e+00    6.22222180e-01    0.00000000e+00
dihedral_coeff 2329 multi/harmonic    1.55555545e-01   -4.66666635e-01    0.00000000e+00    6.22222180e-01    0.00000000e+00
dihedral_coeff 2330 multi/harmonic    1.55555545e-01   -4.66666635e-01    0.00000000e+00    6.22222180e-01    0.00000000e+00
dihedral_coeff 2331 multi/harmonic    1.55555545e-01   -4.66666635e-01    0.00000000e+00    6.22222180e-01    0.00000000e+00
dihedral_coeff 2332 multi/harmonic    1.55555545e-01   -4.66666635e-01    0.00000000e+00    6.22222180e-01    0.00000000e+00
dihedral_coeff 2333 multi/harmonic    1.55555545e-01   -4.66666635e-01    0.00000000e+00    6.22222180e-01    0.00000000e+00
dihedral_coeff 2334 multi/harmonic    1.55555545e-01   -4.66666635e-01    0.00000000e+00    6.22222180e-01    0.00000000e+00
dihedral_coeff 2335 multi/harmonic    1.55555545e-01   -4.66666635e-01    0.00000000e+00    6.22222180e-01    0.00000000e+00
dihedral_coeff 2336 multi/harmonic    1.55555545e-01   -4.66666635e-01    0.00000000e+00    6.22222180e-01    0.00000000e+00
dihedral_coeff 2337 multi/harmonic    1.55555545e-01   -4.66666635e-01    0.00000000e+00    6.22222180e-01    0.00000000e+00
dihedral_coeff 2338 multi/harmonic    1.55555545e-01   -4.66666635e-01    0.00000000e+00    6.22222180e-01    0.00000000e+00
dihedral_coeff 2339 multi/harmonic    1.55555545e-01   -4.66666635e-01    0.00000000e+00    6.22222180e-01    0.00000000e+00
dihedral_coeff 2340 multi/harmonic    1.55555545e-01   -4.66666635e-01    0.00000000e+00    6.22222180e-01    0.00000000e+00
dihedral_coeff 2341 multi/harmonic    1.55555545e-01   -4.66666635e-01    0.00000000e+00    6.22222180e-01    0.00000000e+00
dihedral_coeff 2342 multi/harmonic    1.55555545e-01   -4.66666635e-01    0.00000000e+00    6.22222180e-01    0.00000000e+00
dihedral_coeff 2343 multi/harmonic    1.55555545e-01   -4.66666635e-01    0.00000000e+00    6.22222180e-01    0.00000000e+00
dihedral_coeff 2344 multi/harmonic    1.55555545e-01   -4.66666635e-01    0.00000000e+00    6.22222180e-01    0.00000000e+00
dihedral_coeff 2345 multi/harmonic    1.55555545e-01   -4.66666635e-01    0.00000000e+00    6.22222180e-01    0.00000000e+00
dihedral_coeff 2346 multi/harmonic    1.55555545e-01   -4.66666635e-01    0.00000000e+00    6.22222180e-01    0.00000000e+00
dihedral_coeff 2347 multi/harmonic    1.55555545e-01   -4.66666635e-01    0.00000000e+00    6.22222180e-01    0.00000000e+00
dihedral_coeff 2348 multi/harmonic    1.60000000e-01   -4.80000000e-01    0.00000000e+00    6.40000000e-01    0.00000000e+00
dihedral_coeff 2349 multi/harmonic    1.60000000e-01   -4.80000000e-01    0.00000000e+00    6.40000000e-01    0.00000000e+00
dihedral_coeff 2350 charmm    2.00000000e-01         1       180         0
dihedral_coeff 2351 charmm    2.50000000e-01         2       180         0
dihedral_coeff 2352 multi/harmonic    1.80000000e-01   -5.40000000e-01    0.00000000e+00    7.20000000e-01    0.00000000e+00
dihedral_coeff 2353 multi/harmonic    1.60000000e-01   -4.80000000e-01    0.00000000e+00    6.40000000e-01    0.00000000e+00
dihedral_coeff 2354 multi/harmonic    1.60000000e-01   -4.80000000e-01    0.00000000e+00    6.40000000e-01    0.00000000e+00
dihedral_coeff 2355 multi/harmonic    1.60000000e-01   -4.80000000e-01    0.00000000e+00    6.40000000e-01    0.00000000e+00
dihedral_coeff 2356 charmm    0.00000000e+00         6       180         0
dihedral_coeff 2357 charmm    2.00000000e-01         1       180         0
dihedral_coeff 2358 charmm    2.50000000e-01         2       180         0
dihedral_coeff 2359 multi/harmonic    1.80000000e-01   -5.40000000e-01    0.00000000e+00    7.20000000e-01    0.00000000e+00
dihedral_coeff 2360 multi/harmonic    1.60000000e-01   -4.80000000e-01    0.00000000e+00    6.40000000e-01    0.00000000e+00
dihedral_coeff 2361 multi/harmonic    1.60000000e-01   -4.80000000e-01    0.00000000e+00    6.40000000e-01    0.00000000e+00
dihedral_coeff 2362 multi/harmonic    1.60000000e-01   -4.80000000e-01    0.00000000e+00    6.40000000e-01    0.00000000e+00
dihedral_coeff 2363 multi/harmonic    1.60000000e-01   -4.80000000e-01    0.00000000e+00    6.40000000e-01    0.00000000e+00
dihedral_coeff 2364 multi/harmonic    1.60000000e-01   -4.80000000e-01    0.00000000e+00    6.40000000e-01    0.00000000e+00
dihedral_coeff 2365 multi/harmonic    1.55555545e-01   -4.66666635e-01    0.00000000e+00    6.22222180e-01    0.00000000e+00
dihedral_coeff 2366 multi/harmonic    1.60000000e-01   -4.80000000e-01    0.00000000e+00    6.40000000e-01    0.00000000e+00
dihedral_coeff 2367 multi/harmonic    1.60000000e-01   -4.80000000e-01    0.00000000e+00    6.40000000e-01    0.00000000e+00
dihedral_coeff 2368 multi/harmonic    1.55555545e-01   -4.66666635e-01    0.00000000e+00    6.22222180e-01    0.00000000e+00
dihedral_coeff 2369 multi/harmonic    1.60000000e-01   -4.80000000e-01    0.00000000e+00    6.40000000e-01    0.00000000e+00
dihedral_coeff 2370 multi/harmonic    1.60000000e-01   -4.80000000e-01    0.00000000e+00    6.40000000e-01    0.00000000e+00
dihedral_coeff 2371 charmm    2.00000000e-01         1       180         0
dihedral_coeff 2372 charmm    2.50000000e-01         2       180         0
dihedral_coeff 2373 multi/harmonic    1.80000000e-01   -5.40000000e-01    0.00000000e+00    7.20000000e-01    0.00000000e+00
dihedral_coeff 2374 multi/harmonic    1.60000000e-01   -4.80000000e-01    0.00000000e+00    6.40000000e-01    0.00000000e+00
dihedral_coeff 2375 multi/harmonic    1.60000000e-01   -4.80000000e-01    0.00000000e+00    6.40000000e-01    0.00000000e+00
dihedral_coeff 2376 multi/harmonic    1.55555545e-01   -4.66666635e-01    0.00000000e+00    6.22222180e-01    0.00000000e+00
dihedral_coeff 2377 multi/harmonic    1.55555545e-01   -4.66666635e-01    0.00000000e+00    6.22222180e-01    0.00000000e+00
dihedral_coeff 2378 multi/harmonic    1.55555545e-01   -4.66666635e-01    0.00000000e+00    6.22222180e-01    0.00000000e+00
dihedral_coeff 2379 multi/harmonic    1.55555545e-01   -4.66666635e-01    0.00000000e+00    6.22222180e-01    0.00000000e+00
dihedral_coeff 2380 multi/harmonic    1.55555545e-01   -4.66666635e-01    0.00000000e+00    6.22222180e-01    0.00000000e+00
dihedral_coeff 2381 multi/harmonic    1.55555545e-01   -4.66666635e-01    0.00000000e+00    6.22222180e-01    0.00000000e+00
dihedral_coeff 2382 charmm    0.00000000e+00         6       180         0
dihedral_coeff 2383 charmm    0.00000000e+00         6       180         0
dihedral_coeff 2384 multi/harmonic    1.60000000e-01   -4.80000000e-01    0.00000000e+00    6.40000000e-01    0.00000000e+00
dihedral_coeff 2385 multi/harmonic    1.60000000e-01   -4.80000000e-01    0.00000000e+00    6.40000000e-01    0.00000000e+00
dihedral_coeff 2386 multi/harmonic    1.60000000e-01   -4.80000000e-01    0.00000000e+00    6.40000000e-01    0.00000000e+00
dihedral_coeff 2387 multi/harmonic    1.55555545e-01   -4.66666635e-01    0.00000000e+00    6.22222180e-01    0.00000000e+00
dihedral_coeff 2388 multi/harmonic    1.55555545e-01   -4.66666635e-01    0.00000000e+00    6.22222180e-01    0.00000000e+00
dihedral_coeff 2389 multi/harmonic    1.55555545e-01   -4.66666635e-01    0.00000000e+00    6.22222180e-01    0.00000000e+00
dihedral_coeff 2390 charmm    2.00000000e-01         1       180         0
dihedral_coeff 2391 charmm    2.50000000e-01         2       180         0
dihedral_coeff 2392 multi/harmonic    1.80000000e-01   -5.40000000e-01    0.00000000e+00    7.20000000e-01    0.00000000e+00
dihedral_coeff 2393 charmm    1.00000000e-01         2       180         0
dihedral_coeff 2394 multi/harmonic    3.83000000e-01   -1.14900000e+00    0.00000000e+00    1.53200000e+00    0.00000000e+00
dihedral_coeff 2395 multi/harmonic    1.60000000e-01   -4.80000000e-01    0.00000000e+00    6.40000000e-01    0.00000000e+00
dihedral_coeff 2396 multi/harmonic    1.60000000e-01   -4.80000000e-01    0.00000000e+00    6.40000000e-01    0.00000000e+00
dihedral_coeff 2397 multi/harmonic    3.83333341e-01   -1.15000002e+00    0.00000000e+00    1.53333337e+00    0.00000000e+00
dihedral_coeff 2398 multi/harmonic    3.83333341e-01   -1.15000002e+00    0.00000000e+00    1.53333337e+00    0.00000000e+00
dihedral_coeff 2399 multi/harmonic    3.83333341e-01   -1.15000002e+00    0.00000000e+00    1.53333337e+00    0.00000000e+00
dihedral_coeff 2400 multi/harmonic    2.50000000e-01    2.50000000e-01    0.00000000e+00    0.00000000e+00    0.00000000e+00
dihedral_coeff 2401 multi/harmonic    0.00000000e+00    0.00000000e+00    0.00000000e+00    0.00000000e+00    0.00000000e+00
dihedral_coeff 2402 multi/harmonic    2.50000000e-01    2.50000000e-01    0.00000000e+00    0.00000000e+00    0.00000000e+00
dihedral_coeff 2403 multi/harmonic    0.00000000e+00    0.00000000e+00    0.00000000e+00    0.00000000e+00    0.00000000e+00
dihedral_coeff 2404 multi/harmonic    3.83333341e-01   -1.15000002e+00    0.00000000e+00    1.53333337e+00    0.00000000e+00
dihedral_coeff 2405 multi/harmonic    3.83333341e-01   -1.15000002e+00    0.00000000e+00    1.53333337e+00    0.00000000e+00
dihedral_coeff 2406 multi/harmonic    1.55555545e-01   -4.66666635e-01    0.00000000e+00    6.22222180e-01    0.00000000e+00
dihedral_coeff 2407 multi/harmonic    1.55555545e-01   -4.66666635e-01    0.00000000e+00    6.22222180e-01    0.00000000e+00
dihedral_coeff 2408 multi/harmonic    1.55555545e-01   -4.66666635e-01    0.00000000e+00    6.22222180e-01    0.00000000e+00
dihedral_coeff 2409 multi/harmonic    1.55555545e-01   -4.66666635e-01    0.00000000e+00    6.22222180e-01    0.00000000e+00
dihedral_coeff 2410 multi/harmonic    1.50000000e-01   -4.50000000e-01    0.00000000e+00    6.00000000e-01    0.00000000e+00
dihedral_coeff 2411 multi/harmonic    1.50000000e-01   -4.50000000e-01    0.00000000e+00    6.00000000e-01    0.00000000e+00
dihedral_coeff 2412 multi/harmonic    1.50000000e-01   -4.50000000e-01    0.00000000e+00    6.00000000e-01    0.00000000e+00
dihedral_coeff 2413 multi/harmonic    1.50000000e-01   -4.50000000e-01    0.00000000e+00    6.00000000e-01    0.00000000e+00
dihedral_coeff 2414 multi/harmonic    1.60000000e-01   -4.80000000e-01    0.00000000e+00    6.40000000e-01    0.00000000e+00
dihedral_coeff 2415 multi/harmonic    1.60000000e-01   -4.80000000e-01    0.00000000e+00    6.40000000e-01    0.00000000e+00
pair_coeff 1 1   0.0860000   3.3996695
pair_coeff 2 2   0.0150000   2.5996425
pair_coeff 3 3   0.0860000   3.3996695
pair_coeff 4 4   0.2500000   3.5635949
pair_coeff 5 5   0.2500000   3.5635949
pair_coeff 6 6   0.1094000   3.3996695
pair_coeff 7 7   0.2100000   2.9599219
pair_coeff 8 8   0.1700000   3.0000123
pair_coeff 9 9   0.0157000   1.9599772
pair_coeff 10 10   0.1700000   3.2499985
pair_coeff 11 11   0.0157000   2.4713530
pair_coeff 12 12   0.0157000   2.6495328
pair_coeff 13 13   0.2500000   3.5635949
pair_coeff 14 14   0.1700000   3.2499985