LAMMPS data file via write_data, version 7 Feb 2024, timestep = 1100520, units = real

1940 atoms
18 atom types
1940 bonds
97 bond types
3560 angles
178 angle types
5780 dihedrals
289 dihedral types

13.745761578589356 43.94422123370594 xlo xhi
13.745761578589356 43.94422123370594 ylo yhi
13.745761578589356 43.94422123370594 zlo zhi

Masses

1 12.01
2 1.008
3 12.01
4 32.06
5 32.06
6 12.01
7 16
8 16
9 1.008
10 14.01
11 1.008
12 1.008
13 32.06
14 14.01
15 32.06
16 19
17 12.01
18 14.01

Atoms # full

648 7 12 0.06845 17.20056462418327 18.72979871577343 16.983108921293354 1 0 1
631 7 6 0.147012 18.938597257240257 19.865560621154266 16.054960454284473 1 0 1
650 7 11 0.051768 19.02246996095089 19.550501260465776 15.007630460542531 1 0 1
635 7 13 1.493068 14.766659729032643 19.806517951171664 17.210665679549013 1 0 1
649 7 11 0.051768 19.13478584491186 20.944160230476335 16.091430682742725 1 0 1
647 7 11 0.098277 16.085073592760015 19.963145575700203 15.021916881664474 1 0 1
230 3 9 0.111306 14.295530933497938 14.992178584892834 14.990014961568749 0 0 1
634 7 6 -0.289357 16.218405775107207 20.375680545012138 16.02950538634398 1 0 1
632 7 6 -0.052808 17.53767432633313 19.729429872717542 16.682623065388167 1 0 1
629 7 3 0.638095 20.769828658396996 19.553653074748432 17.46720165801512 1 0 1
630 7 8 -0.433046 19.650685295912787 18.979970844088832 16.877121789015586 1 0 1
226 3 6 0.092083 14.520482142316228 13.909543741004109 17.195095546151713 0 0 1
229 3 9 0.106828 14.488495042785262 14.883568471564734 17.685545584009763 0 0 1
678 7 12 0.048741 18.053177777428203 19.192330677426398 20.76905080263243 1 0 1
679 7 12 0.048741 17.84806442210671 18.49350444535012 19.114689240573973 1 0 1
672 7 12 0.057205 18.212198114304655 15.02431603849356 19.715078373988284 1 0 1
662 7 6 -0.06977 18.661876316738834 16.719734180873246 21.056286200522813 1 0 1
656 7 6 -0.09009 20.509696820563118 17.603901795428257 19.19179695315607 1 0 1
636 7 7 -0.661288 14.78897231574668 20.385919689597216 18.438649412335334 1 0 1
633 7 12 0.06845 17.62112989595485 20.260643287299935 17.638679886290937 1 0 1
657 7 12 0.044521 20.00676764502805 17.13922302239288 18.334864619295836 1 0 1
664 7 6 0.133064 16.469811893034237 15.24092308924209 20.741048636150573 1 0 1
676 7 6 -0.08971800000000001 18.56365787926842 18.88489034988855 19.84813343526656 1 0 1
677 7 12 0.048741 19.044990634419836 19.75173242105363 19.378983206043543 1 0 1
665 7 8 -0.400504 15.284158733475175 16.076834895617417 20.786100844403187 1 0 1
663 7 6 -0.116027 17.621725878887613 15.862169698226552 20.105643488148736 1 0 1
659 7 6 -0.003469 19.561520474658092 17.793831349480172 20.340662565227372 1 0 1
673 7 12 0.057205 17.337728954113263 16.468212942221644 19.23658953281533 1 0 1
671 7 11 0.048914 16.252043577605875 14.312016228413626 20.199840572535308 1 0 1
658 7 12 0.044521 21.071802953491606 16.69092040445097 19.423526846090244 1 0 1
645 7 7 -0.7044049999999999 14.949001353188208 18.325752438556975 17.53836030843296 1 0 1
661 7 18 -0.361186 20.593160211701655 18.742309042317373 22.466360720101406 1 0 1
667 7 11 0.034233 14.582850730207022 16.177061451533127 22.709048005878316 1 0 1
475 5 11 0.034233 20.801601878780104 20.97063499227614 23.93369848800323 0 0 0
660 7 17 0.220426 20.255262197655384 18.418996436699082 21.387077484805985 1 0 1
674 7 12 0.054614 17.956885763942676 17.266900467952215 21.694090658751954 1 0 1
666 7 6 0.116794 15.09793882712687 16.786728142242183 21.956593399114585 1 0 1
669 7 11 0.034233 15.960270535710503 17.25241119710817 22.449260095277438 1 0 1
670 7 11 0.048914 16.582861746363612 15.05549491993096 21.816238514821194 1 0 1
668 7 11 0.034233 14.30555136663102 17.520927321638535 21.7661443884254 1 0 1
675 7 12 0.054614 19.24992055547585 16.0940006540395 21.73882464731423 1 0 1
1837 19 12 0.057205 16.746829720051636 16.615162211664273 26.774019022960594 1 1 0
107 2 2 0.168147 20.386403511254844 14.6541918245902 26.583397021921066 1 0 0
1836 19 12 0.057205 15.678774799595624 17.888393615303897 27.36992476233777 1 1 0
1827 19 6 -0.116027 16.485676366715644 17.204863321947915 27.661289395895153 1 1 0
1843 19 12 0.048741 13.908067700247555 16.23860892033449 27.315575705353357 1 1 0
1831 19 11 0.034233 18.31698371256534 20.604862601004033 28.13173095222043 1 1 0
1834 19 11 0.048914 17.768239968261547 18.701292502705247 26.91856494386318 1 1 0
1828 19 6 0.133064 17.63943979242569 18.251421129814542 27.91064529050656 1 1 0
1842 19 12 0.048741 14.983847847172028 14.849336028935898 27.00885226510777 1 1 0
1840 19 6 -0.08971800000000001 14.313283764450537 15.313085333650594 27.742662564477108 1 1 0
1835 19 11 0.048914 18.63400023505374 17.789684458960807 27.93973135702848 1 1 0
1839 19 12 0.054614 16.703053380557904 16.884118512341136 29.892645712532172 1 1 0
1830 19 6 0.116794 18.044059674310034 20.24304524784806 29.130629900633423 1 1 0
1826 19 6 -0.06977 16.348330642279066 16.35003675865758 29.00263130069462 1 1 0
1793 19 3 0.638095 14.671900400187743 17.141376030568956 32.19097504078018 1 1 0
1822 19 12 0.044521 14.34697879410872 17.79954946535534 29.418745308734117 1 1 0
1817 19 12 0.044521 14.002185525735658 19.366835866178707 31.097502319424645 1 1 0
1829 19 8 -0.400504 17.312103180179093 19.08783730446368 29.069326343045564 1 1 0
1824 19 17 0.220426 14.773634356593982 14.566143265061706 30.177183050794632 1 1 0
1815 19 7 -0.546871 15.56277367527255 16.379438804846213 32.00155804963754 1 1 0
784 9 2 0.151839 17.491150848730918 20.753169989566892 32.05821742415357 0 1 0
1823 19 6 -0.003469 14.870421187308905 15.754324382149813 29.214951756544487 1 1 0
1820 19 6 -0.09009 13.839700981715865 16.898957069745073 29.785896284907686 1 1 0
1046 11 12 0.044521 20.538801902587046 15.453457976152476 31.74803227099628 1 0 0
1838 19 12 0.054614 17.017999235599206 15.49457323668069 28.851226903640153 1 1 0
1833 19 11 0.034233 17.395253332247307 20.94325700001312 29.67095479725468 1 1 0
1011 11 12 0.059459 19.101989665526958 14.001819541778096 32.05084297528772 1 0 0
1832 19 11 0.034233 18.96698668718469 20.077668059031865 29.69988684347362 1 1 0
779 9 1 -0.093654 18.450445909800255 20.918267453464324 32.53977659355479 0 1 0
1049 11 18 -0.361186 21.200162561344946 18.364411282347632 33.71890368630143 1 0 0
1016 11 6 -0.110462 21.24398523602651 14.050735214090427 33.552429198130866 1 0 0
1796 19 6 -0.052808 15.95616855404418 16.90382677468409 35.04322142376093 1 1 0
782 9 2 0.168147 20.032561190942122 20.401420650303862 35.463951322452615 0 1 0
783 9 2 0.154651 18.16741133927716 19.759746345033605 34.26237278824759 0 1 0
1812 19 12 0.06845 15.47267515512836 16.047230018453938 34.55775939413663 1 1 0
1814 19 11 0.051768 16.377203539998973 18.935092509942546 34.40622987122954 1 1 0
1813 19 11 0.051768 17.06980530060348 17.91443051235446 33.30672015047091 1 1 0
780 9 1 -0.120349 18.760874192086252 20.577324120778748 33.8639109785026 0 1 0
1043 11 12 0.044521 20.111511101525984 15.397648891963705 34.97486798311907 1 0 0
1794 19 8 -0.433046 14.940823115454904 17.976778949094083 33.212604292771324 1 1 0
1795 19 6 0.147012 16.182229617750718 17.956884257148474 33.94984085472898 1 1 0
1040 11 6 -0.09009 19.9425646230356 14.495121393712719 34.374785981218906 1 0 0
1042 11 12 0.044521 18.988748290316416 14.681775350656007 33.8662667062226 1 0 0
781 9 1 -0.077461 19.957989530095055 21.03074170946925 34.5820230552395 0 1 0
395 5 2 0.154651 13.784749005138774 19.85896711222518 34.24370662537295 0 0 0
1797 19 12 0.06845 16.990140060877028 16.58250233097867 35.21886532469112 1 1 0
394 5 2 0.168147 15.310880628539643 21.178237820258577 33.080236692821 0 0 0
1041 11 12 0.044521 19.76298538910386 13.93307810354783 35.29947827883899 1 0 0
1811 19 11 0.098277 14.734386261853656 18.37657389967624 36.08369940372947 1 1 0
1798 19 6 -0.289357 15.048897705081329 17.346431225182034 36.29127123936178 1 1 0
252 3 6 0.560848 19.234332212981595 19.036211675682523 39.07532173752784 0 0 0
256 3 7 -0.674243 16.704440711388322 19.25382683030275 40.06114821293537 0 0 0
255 3 16 -0.277193 19.772166267350755 20.31442899255767 39.09367949391143 0 0 0
1877 20 9 0.106828 14.107544486129818 17.513054165469143 39.86942463969484 0 0 0
253 3 16 -0.277193 18.477259357099896 19.002789650910135 37.92306596878372 0 0 0
244 3 6 -0.052808 18.61689458305803 15.0975674773719 40.114694042117335 0 0 0
1810 19 11 0.098277 15.620166983362052 17.614104119193982 37.18860049632012 1 1 0
245 3 12 0.06845 18.150035680233152 15.717707824979943 39.33966766914944 0 0 0
254 3 16 -0.277193 20.178215445414253 17.953485540431537 39.25051764080459 0 0 0
260 3 12 0.06845 19.688341944228227 15.31140504278751 40.01737335677194 0 0 0
259 3 11 0.098277 19.12943027654225 14.802429949878132 42.24309878775594 0 0 0
246 3 6 -0.289357 18.45614996945373 15.393769040250755 41.61047813176966 0 0 0
248 3 7 -0.661288 19.775687724916047 17.520983392367253 42.54777041763849 0 0 0
1875 20 6 0.092083 14.174982133729698 17.2280013502616 40.920369711877925 0 0 0
247 3 13 1.493068 18.447552236563215 17.048532593518495 42.45495414946758 0 0 0
250 3 15 1.71217 18.033644252174707 18.924584650791967 40.55006316449308 0 0 0
1878 20 9 0.106828 15.146965913698805 17.005379165030103 41.36306083217292 0 0 0
1874 20 9 0.106828 15.307608173333593 19.837685806804203 41.386043665776356 0 0 0
251 3 7 -0.674243 18.57217068080122 19.658203196041992 41.68148106710983 0 0 0
615 7 9 0.106828 21.019855694567696 14.24743769851085 43.192759330297676 1 0 0
258 3 11 0.098277 17.456369478960994 15.125575045582673 41.973394251693605 0 0 0
1871 20 6 0.092083 14.779420395211762 19.24917387241327 42.13768176058724 0 0 0
1872 20 9 0.106828 14.505310505970481 20.109267107755826 42.75037393170469 0 0 0
249 3 14 -1.052306 17.53364013127804 17.45607686569979 41.20279195890615 0 0 0
257 3 7 -0.7044049999999999 17.760274699193644 16.797272236760044 43.62391043903106 0 0 0
1873 20 9 0.106828 15.275774510769622 18.58537085055854 42.8471087135241 0 0 0
212 3 7 -0.559613 14.204038727575451 14.876055815641124 42.618770171148185 0 0 0
1885 20 12 0.059459 15.510262166901475 21.179654116251932 43.768733554780155 0 0 0
238 3 12 0.059459 14.29911427870349 13.917313821859711 40.3222961534585 0 0 0
1858 20 6 -0.091903 14.322095397292786 23.557644465041427 14.290603897470358 0 0 1
1844 20 1 -0.077461 15.391988974697531 26.27582620362177 16.21198997965232 0 0 1
1845 20 1 -0.120349 16.746173341654877 26.660599309786363 16.121577706835865 0 0 1
1853 20 2 0.168147 14.541862167158015 26.831314371487707 15.827125402708726 0 0 1
1900 20 7 -0.674243 21.271638554688643 26.58704227844286 15.368244209999117 0 0 1
1852 20 2 0.154651 16.830775635349863 27.62895787489999 15.637297251894369 0 0 1
1851 20 2 0.151839 18.732615229526687 25.928546171870153 16.336830694774587 0 0 1
1846 20 1 -0.093654 17.691115931037775 25.632115117634747 16.254300439819968 0 0 1
1854 20 1 -0.09943 15.065523651038756 25.01151914981542 16.578185249499384 0 0 1
1847 20 1 -0.120349 17.383302303995183 24.345396920702832 16.790221401922167 0 0 1
1850 20 2 0.154651 18.13084873704146 23.558963585498027 16.836050869455097 0 0 1
1848 20 1 -0.077461 16.056266826979172 24.06798522827759 17.111178414500067 0 0 1
646 7 11 0.098277 16.29077284310807 21.47014911924604 16.039440237419797 1 0 1
1194 13 9 0.106828 18.92055236023164 28.374315710018315 19.075891539626642 0 0 0
1195 13 9 0.106828 18.997351396543017 26.83311243928309 19.298019865619345 0 0 0
1186 13 9 0.111306 21.280946807972178 26.415588882372944 18.55627381941504 0 0 0
1192 13 6 0.092083 19.31139320585853 27.717474348886697 19.85441020928389 0 0 0
1187 13 10 -0.57875 20.839290110307083 27.809462586086646 20.08598889217967 0 0 0
1193 13 9 0.106828 18.82262415430982 27.86083302087368 20.819211543822384 0 0 0
453 5 11 0.098277 16.118140316512086 27.708491784209087 21.11314587116287 0 0 0
1849 20 2 0.168147 15.893457016362303 23.078340248046377 17.527710734251727 0 0 1
457 5 7 -0.546871 16.365868104664393 23.594914673450443 23.94513033644698 0 0 0
437 5 6 0.147012 15.186791940978097 25.573710203592096 22.74037008080095 0 0 0
472 5 6 0.116794 20.525605792485234 21.912767023726786 23.444402520648403 0 0 0
440 5 6 -0.289357 15.697779753309845 27.881253545319037 22.11146823604753 0 0 0
452 5 11 0.098277 16.49574928606016 27.671956322166153 22.83440470942024 0 0 0
439 5 12 0.06845 13.761589382716156 27.159633102216574 23.040712486083677 0 0 0
470 5 6 0.133064 20.85679422252297 24.297784488426053 23.87709281666487 0 0 0
474 5 11 0.034233 19.436170378372804 22.01266019534622 23.52408299207434 0 0 0
436 5 8 -0.433046 15.153050772134723 25.431632518529504 24.22086137980345 0 0 0
1191 13 9 0.106828 20.314660718614924 26.832784490417612 22.13152619146161 0 0 0
455 5 11 0.051768 16.27494640404446 25.56418833537575 22.602433910370028 0 0 0
481 5 12 0.054614 18.555007123671302 24.04318143735712 24.712204329182363 0 0 0
471 5 8 -0.400504 21.061313669945086 22.966588851312235 24.104943875696748 0 0 0
438 5 6 -0.052808 14.582109077524663 26.91811247510196 22.353971852366733 0 0 0
480 5 12 0.054614 18.285746250532167 25.569517819460362 24.649650876737805 0 0 0
435 5 3 0.638095 15.766716501660596 24.29213255394739 24.62960919830696 0 0 0
456 5 11 0.051768 14.698244581557361 24.61466070099779 22.528845318859823 0 0 0
477 5 11 0.048914 20.311666877299484 24.477562166924134 22.942366315469954 0 0 0
473 5 11 0.034233 20.532918843196207 21.88004056390729 22.348011780001862 0 0 0
1188 13 6 0.092083 21.139136205734097 27.027068907932804 21.443933743359302 0 0 0
454 5 12 0.06845 13.932804821531958 26.749208633840304 21.486173850971287 0 0 0
458 5 6 -0.09009 15.747408990448161 22.58208645585885 26.568819318834564 0 0 0
482 5 6 -0.08971800000000001 18.67081640518148 23.33730698302411 27.189880270821305 0 0 0
464 5 12 0.044521 16.645966253941662 25.303575838475084 28.08740398466795 0 0 0
431 5 6 -0.09578200000000001 14.06455939800462 24.378001477937488 26.557560365312142 0 0 0
463 5 12 0.044521 16.840103178008555 26.01094203846921 26.545691765463452 0 0 0
434 5 6 -0.110462 15.603590822821449 24.118221164258806 26.245039711317236 0 0 0
466 5 17 0.220426 19.079145482913013 25.64083245117146 27.62970773712079 0 0 0
460 5 12 0.044521 15.39253861062548 22.125887421714445 27.501099631784655 0 0 0
465 5 6 -0.003469 18.300285487669793 24.749006387835724 26.7614871957838 0 0 0
462 5 6 -0.09009 16.760651324072768 25.030564597704757 27.03122721455665 0 0 0
461 5 12 0.044521 16.682624369026026 22.19892538735902 26.14248970750172 0 0 0
459 5 12 0.044521 14.976162043224168 22.049075095297923 25.99936852547222 0 0 0
478 5 12 0.057205 21.019094520301064 24.451587567017334 25.82577602813612 0 0 0
467 5 18 -0.361186 19.873325929927198 26.207310985999484 28.298225810260284 0 0 0
485 5 12 0.048741 18.56386695121806 22.60155474715763 26.383389350076996 0 0 0
469 5 6 -0.116027 20.34265131290558 24.988777846800566 25.14972248481258 0 0 0
422 5 9 0.106828 14.1378922645708 28.285238577520715 27.50901633239084 0 0 0
468 5 6 -0.06977 18.862087590028448 24.910055731472436 25.310058012900186 0 0 0
432 5 12 0.059459 14.011238188997753 25.415855487354357 26.20654311702757 0 0 0
423 5 9 0.106828 14.040361276743466 27.539687861864238 25.780834753136887 0 0 0
484 5 12 0.048741 19.745407015282474 23.278122892313878 27.401893064487403 0 0 0
483 5 12 0.048741 18.199687255303747 23.01496184284824 28.12653822641187 0 0 0
420 5 6 0.092083 13.860340616406832 28.376086986043884 26.45782647409714 0 0 0
479 5 12 0.057205 20.54710329069074 26.056693211163598 25.294475144893667 0 0 0
777 9 1 -0.077461 20.367982069869676 22.224745846683724 32.53966190869724 0 1 0
403 5 6 -0.091903 14.33694599747798 24.358908812182094 29.250136082142305 0 0 0
785 9 2 0.154651 19.040609878126027 22.33343019760172 30.95934050026982 0 1 0
400 5 3 0.236869 14.658715676814767 23.874573775458064 32.07544245347198 0 0 0
401 5 4 -0.279561 16.348934365516655 24.219178573515478 31.977942011367727 0 0 0
778 9 1 -0.120349 19.35405061001488 21.691200443493464 31.77708082962223 0 1 0
786 9 2 0.168147 21.187027353705304 22.73743847018207 32.043965944478714 0 1 0
787 9 1 -0.09943 20.75563674228041 21.8511947166876 33.85027572913245 0 1 0
399 5 1 -0.09943 14.015077745032873 22.931840419879347 33.04170682832482 0 0 0
393 5 1 -0.077461 14.434498548753652 21.69822722713207 33.45569492176567 0 0 0
1921 20 17 0.220426 16.714790619063795 24.194538984471986 38.05663578175402 0 0 0
1922 20 18 -0.361186 17.587339349236387 24.701794141039876 37.531693261712064 0 0 0
1939 20 12 0.048741 15.979064996047335 22.08655172551518 37.107936670472725 0 0 0
1938 20 12 0.048741 16.99935694862223 21.79846182524013 38.76810295943409 0 0 0
1923 20 6 -0.06977 14.062066736225766 23.617263441607037 37.91344720256049 0 0 0
1936 20 12 0.054614 14.208479226050189 24.46781169808134 37.236447796158615 0 0 0
1937 20 6 -0.08971800000000001 16.088232001524823 22.015151461150563 38.197056373628754 0 0 0
1935 20 12 0.054614 13.815322059147867 22.792756959839352 37.23337117967638 0 0 0
1920 20 6 -0.003469 15.562560067551003 23.41549257302845 38.61501428664412 0 0 0
1916 20 12 0.044521 15.05022869546479 25.70188958169468 39.428105882336226 0 0 0
1940 20 12 0.048741 15.253961743139778 21.430720485338753 38.604033915284866 0 0 0
1882 20 6 -0.09578200000000001 15.61492553614028 22.131068660282594 43.23296015625577 0 0 0
1894 20 12 0.06845 18.733996066099394 27.672854711334438 40.76008319854756 0 0 0
1893 20 6 -0.052808 19.55206586931189 27.02662565345777 41.10118136351856 0 0 0
1912 20 7 -0.546871 16.649520388394112 25.62835654790736 43.14502845464561 0 0 0
1917 20 6 -0.09009 15.659832839815042 23.35813221303335 40.279970198742326 0 0 0
1918 20 12 0.044521 16.72604820955171 23.210943707212692 40.491435584215935 0 0 0
1892 20 6 0.147012 19.191693296385488 25.738560418982495 41.68764974458336 0 0 0
1895 20 6 -0.289357 20.49844992880997 27.847060327160257 42.102045242763865 0 0 0
1908 20 11 0.098277 19.90220336345851 28.166397317147155 42.96559114774065 0 0 0
1915 20 12 0.044521 14.054534109312833 26.129559696705613 40.74079484262383 0 0 0
1919 20 12 0.044521 15.129251587691295 22.4405806792603 40.56242367757998 0 0 0
1891 20 8 -0.433046 17.812871244888083 25.16254082991165 41.2635823814664 0 0 0
1889 20 6 -0.110462 15.432849699888575 24.577192786717312 41.30592995290928 0 0 0
1883 20 12 0.059459 16.103475878396644 21.56396400779954 42.43114470840953 0 0 0
1911 20 11 0.051768 19.81974894011394 24.850729064020427 41.54447566880472 0 0 0
1887 20 12 0.059459 14.127408554150234 25.071254820465725 42.72938057002642 0 0 0
1890 20 3 0.638095 16.691760380406453 25.02674386760887 42.156766797554994 0 0 0
1913 20 6 -0.09009 15.083238467693542 25.82077432227274 40.51804812158899 0 0 0
1886 20 6 -0.09578200000000001 14.2863608221078 24.10867995415823 42.228001509057776 0 0 0
1907 20 11 0.098277 20.907576264175656 28.623383997855797 41.443915755183106 0 0 0
1859 20 6 -0.09539499999999999 14.339440379987265 22.88878956797866 43.15071368973375 0 0 0
1914 20 12 0.044521 15.498378492815254 26.818000187166607 40.70882677142176 0 0 0
1910 20 11 0.051768 19.172285049121918 25.687750499214566 42.78320386443818 0 0 0
1909 20 12 0.06845 20.174428460329295 26.82929631640764 40.21974894795807 0 0 0
1884 20 12 0.059459 16.45883882514396 22.76798031033901 43.52510919989521 0 0 0
494 6 2 0.154651 16.122185733214092 29.269338835957114 16.422929809886252 0 0 0
488 6 1 -0.093654 16.284907845110073 29.81683945938081 14.510445501969484 0 0 0
493 6 2 0.151839 17.344797260606025 29.58160037090367 14.536910417198145 0 0 0
487 6 1 -0.120349 15.47443988443822 29.558898873719997 15.600747532193845 0 0 0
486 6 1 -0.077461 14.118110582814975 29.49521635213014 15.677921073666061 0 0 0
495 6 2 0.168147 13.789297883462762 29.229902361678768 16.67836801978539 0 0 0
445 5 7 -0.674243 17.206952122138055 30.44661615292428 19.631949930116253 0 0 0
448 5 16 -0.277193 15.596463351941708 32.729529398965525 20.466771398973073 0 0 0
449 5 16 -0.277193 17.748773231810727 33.64914902191442 20.26094280552369 0 0 0
450 5 7 -0.674243 18.92114529086033 30.85897348487053 21.141151744662164 0 0 0
444 5 15 1.71217 17.483023163474165 30.944550928499428 20.912250178369383 0 0 0
446 5 6 0.560848 16.793505154275415 32.68087614012494 20.92338258537461 0 0 0
451 5 7 -0.7044049999999999 14.517215513149322 30.272227846948343 21.04263582966759 0 0 0
1197 13 9 0.106828 20.454175661103562 29.822050007152267 19.72180928251236 0 0 0
1196 13 6 0.092083 21.126188604980378 29.17391963479875 20.28626838946186 0 0 0
1198 13 9 0.106828 20.705575971157135 29.418669317185483 21.26272683985735 0 0 0
447 5 16 -0.277193 16.802232015922446 33.25514482511733 22.19406650999931 0 0 0
443 5 14 -1.052306 17.01532874330855 29.982215449545116 22.127118746142685 0 0 0
441 5 13 1.493068 15.360837886837984 29.715298249767024 22.06977207029925 0 0 0
442 5 7 -0.661288 14.723863186566284 29.84340375876723 23.432742842001055 0 0 0
886 10 4 -0.279561 20.909967503452794 30.990831668622594 24.884795833114588 -1 0 0
879 10 2 0.168147 20.994276358363024 32.73247547469322 23.093913202906595 -1 0 0
421 5 9 0.106828 14.399540340184876 29.23057343443015 26.04623805471131 0 0 0
1613 17 16 -0.277193 15.576657058984242 35.17819103643434 28.265460317609776 0 -1 0
1611 17 16 -0.277193 16.004068455298302 33.50155058337853 27.46403595091828 0 -1 0
1610 17 6 0.560848 14.886947370433386 34.20889557709447 27.74352689506727 0 -1 0
1612 17 16 -0.277193 14.269398915790829 33.39847929469224 28.739926410626502 0 -1 0
1608 17 15 1.71217 13.872542969290114 34.88427156278093 26.367779393297536 0 -1 0
970 10 12 0.048741 19.925056016025735 33.75638543587581 27.996479238373944 -1 0 0
1609 17 7 -0.674243 14.676110495496754 35.69129525467575 25.472410722013734 0 -1 0
969 10 12 0.048741 18.565633930960455 33.040543322968915 28.662812426160606 -1 0 0
963 10 12 0.057205 17.02416242469005 32.78289959255814 31.108946008189726 -1 0 0
954 10 6 -0.116027 17.85098689462633 33.42107372874409 31.444046324877633 -1 0 0
964 10 12 0.057205 17.625365860370305 34.442247988753415 31.113145367946867 -1 0 0
953 10 6 -0.06977 19.093531562517406 32.53332041889084 31.125308836157707 -1 0 0
966 10 12 0.054614 18.566635738543013 31.650967510102944 30.74186224453525 -1 0 0
377 4 11 0.034233 13.961017685952923 30.933895410241828 31.491137763777605 1 0 -1
950 10 6 -0.003469 20.167181923172148 33.01387053401016 30.211412399653817 -1 0 0
951 10 17 0.220426 20.96362607936759 34.17565871958239 30.92482848264953 -1 0 0
944 10 12 0.044521 20.06531359705133 30.307957918173162 32.378899974462485 -1 0 0
947 10 6 -0.09009 21.026986294666145 31.7370783708381 29.86570097993218 -1 0 0
965 10 12 0.054614 19.63790139788484 32.2889293316057 32.045706378163004 -1 0 0
943 10 6 -0.09009 20.798261401105798 30.01591644403536 31.616865558151524 -1 0 0
967 10 6 -0.08971800000000001 19.415456558214274 33.665483656556916 28.963558558791068 -1 0 0
946 10 12 0.044521 20.25591750373555 29.3901364478723 30.897518872815446 -1 0 0
949 10 12 0.044521 20.533512439718432 31.07672015557375 29.142093475676667 -1 0 0
968 10 12 0.048741 19.04945185801565 34.649787398103584 29.28039272118382 -1 0 0
957 10 6 0.116794 18.085510204870822 31.83332789239266 34.686424697164966 -1 0 0
959 10 11 0.034233 17.712083885672026 30.835561168096113 34.94759859339115 -1 0 0
962 10 11 0.048914 18.758330524489562 33.78695723094899 33.55764784263099 -1 0 0
960 10 11 0.034233 17.85193616605242 32.685196524585976 35.33677860348844 -1 0 0
956 10 8 -0.400504 17.391789693377742 32.21325696955407 33.57452833732414 -1 0 0
958 10 11 0.034233 19.172866591795085 31.71608385907586 34.770728189164664 -1 0 0
571 6 11 0.034233 14.81065821472284 32.26455299102105 35.92625297371653 0 0 -1
961 10 11 0.048914 17.197542356646093 34.15351128101156 33.33053851146141 -1 0 0
955 10 6 0.133064 17.913759891568425 33.40423882864032 32.971622904388255 -1 0 0
924 10 12 0.06845 21.241376195033034 33.55179580446215 34.96459411115445 -1 0 0
345 4 7 -0.661288 15.061418221386338 36.36813040359268 36.222835983471455 1 0 -1
355 4 11 0.098277 14.079169301802654 35.2487178331684 34.39563847510759 1 0 -1
979 11 2 0.154651 17.94351018839688 36.313877183104836 34.296769838544115 1 -1 0
934 10 16 -0.277193 19.94574844648154 29.897536395962824 38.17249600393637 -1 0 0
932 10 16 -0.277193 20.00389839395521 31.806145852840995 37.11076140071303 -1 0 0
933 10 16 -0.277193 19.186906959450692 31.81714184193773 39.02571976785286 -1 0 0
931 10 6 0.560848 20.207002580836836 31.197329705743417 38.321906556276076 -1 0 0
569 6 6 0.116794 14.084866868357647 32.60451483788158 36.675152184996286 0 0 -1
572 6 11 0.034233 14.731371074519917 32.6324790222168 37.56084259746922 0 0 -1
927 10 7 -0.661288 21.261892251419162 34.027347709573334 37.31707257764339 -1 0 0
279 3 11 0.034233 18.967598825547807 35.946080656469974 39.779886788319516 0 -1 0
489 6 1 -0.120349 15.557705485906315 29.845007609636685 43.4991513339298 0 0 -1
492 6 2 0.154651 16.03238236258177 29.66415808298489 42.53926660138572 0 0 -1
490 6 1 -0.077461 14.221735152434626 29.68025330892758 43.3334239516348 0 0 -1
491 6 2 0.168147 13.754253901693769 29.49375044511718 42.37109273653239 0 0 -1
272 3 17 0.220426 16.83995995659139 41.17297814334907 14.268436365673617 0 -1 1
273 3 18 -0.361186 17.08930737444909 41.539697898840274 15.33692086196013 0 -1 1
221 3 9 0.106828 14.095529255490895 42.48850942402463 15.555675858311819 0 -1 1
228 3 9 0.106828 15.289167634778519 43.866141041028996 16.459627171440488 0 -1 1
291 3 12 0.048741 15.955419579152993 38.86409719380546 13.946270464361405 0 -1 1
163 2 12 0.06845 15.841277666807455 40.69322678030795 17.368441527205334 1 -1 0
290 3 12 0.048741 14.75540142735551 39.619866239333106 14.077173296950132 0 -1 1
164 2 11 0.051768 16.623030137447262 41.042609430649065 20.1376064662457 1 -1 0
165 2 11 0.051768 17.769898552728662 41.81155155436174 19.21706853035854 1 -1 0
144 2 3 0.638095 19.283802320822954 40.473399711749636 20.66216805260862 1 -1 0
168 2 12 0.044521 19.675263974371095 37.78326732647609 19.80504592277247 1 -1 0
194 2 12 0.048741 20.796230953654266 39.924836165221926 18.241356919898724 1 -1 0
162 2 11 0.098277 15.910203827131834 38.53543186609636 19.613751844177763 1 -1 0
145 2 8 -0.433046 18.228585336127363 39.85684520082441 19.934186697275692 1 -1 0
161 2 11 0.098277 15.219048202249587 38.29190858150349 18.07378644997657 1 -1 0
150 2 13 1.493068 13.891407489413819 39.45356661177543 19.477428608292893 1 -1 0
147 2 6 -0.052808 16.37058500844187 40.11462659332415 18.135417892203105 1 -1 0
167 2 6 -0.09009 19.849725137642164 37.854281179226405 20.885655699114775 1 -1 0
149 2 6 -0.289357 15.486933200891444 39.0953729689318 18.770837197227127 1 -1 0
151 2 7 -0.661288 14.241289672538917 40.612568467793075 20.341272999905318 1 -1 0
146 2 6 0.147012 17.350902402676986 40.80679383736682 19.351610195702353 1 -1 0
166 2 7 -0.546871 19.676244011684602 41.56316869721432 20.34592858939156 1 -1 0
227 3 9 0.106828 14.209776554603234 43.4541120093815 18.011291938552787 0 -1 1
170 2 12 0.044521 20.56680091593691 37.06171209789358 21.13230068795247 1 -1 0
169 2 12 0.044521 18.863130586915933 37.528951697824645 21.237776520444978 1 -1 0
148 2 12 0.06845 17.063154852992792 39.492271509707095 17.5555739813964 1 -1 0
134 2 11 0.09167 15.949562087427093 37.05832138968617 22.844606265688128 1 -1 0
120 2 10 -0.57875 14.375902659359925 39.712814759665605 24.14551778780657 1 -1 0
114 2 3 0.672902 18.536163541067477 38.07185422231463 24.39081532803708 1 -1 0
117 2 6 0.131666 16.207402370336915 37.876065593477534 23.52871880407172 1 -1 0
140 2 6 -0.09578200000000001 19.999776926661916 39.87377435368279 22.846885119963197 1 -1 0
141 2 12 0.059459 20.896388748279023 40.446949363111564 23.112882865348784 1 -1 0
137 2 12 0.059459 21.058357877139834 36.916421068216074 23.299135649494893 1 -1 0
113 2 6 -0.09539499999999999 19.994758932639897 38.84071877796363 24.17390345644634 1 -1 0
133 2 9 0.111306 15.761909767400331 39.74584471803433 22.390371439575738 1 -1 0
128 2 9 0.106828 16.20587859204294 40.95638013725845 24.22826554175169 1 -1 0
132 2 9 0.106828 14.079275175324037 37.73014600297189 24.77819314400515 1 -1 0
116 2 8 -0.406806 17.56799881578887 38.392624665757694 23.415577069144877 1 -1 0
124 2 9 0.106828 14.235290422515007 41.453951970285146 23.079985513525884 1 -1 0
119 2 9 0.111306 14.646472984562035 38.460341373069966 22.306287255966804 1 -1 0
118 2 6 0.086606 15.284554163747417 38.98972676506845 23.015436024679925 1 -1 0
143 2 6 -0.110462 20.204974910438796 39.3772989453343 21.337618662098087 1 -1 0
142 2 12 0.059459 19.142496444356848 40.54943305137926 22.955294866230485 1 -1 0
136 2 6 -0.09578200000000001 21.105426773180334 37.7582761323776 24.000749307208288 1 -1 0
135 2 11 0.09167 16.03696630006561 37.54987013483101 24.562036381804997 1 -1 0
125 2 6 0.092083 15.509809274132861 40.4895288588115 24.926710852485662 1 -1 0
139 2 12 0.059459 21.11830806200824 37.08918992604603 24.869860855027056 1 -1 0
112 2 6 -0.091903 20.245992556988398 39.60816783149741 25.61709194942531 1 -1 0
110 2 4 -0.279561 19.33163894139858 42.566779919812475 25.402499099061497 1 -1 0
115 2 7 -0.559613 18.178222215337872 37.67607676046117 25.56093331575744 1 -1 0
126 2 9 0.106828 15.269362823114488 41.41773499078633 25.447198450011765 1 -1 0
127 2 9 0.106828 15.775158432870064 39.64756034822218 25.567778172110565 1 -1 0
109 2 3 0.236869 20.99307076134496 42.42069080226082 25.73452504164872 1 -1 0
1009 11 6 -0.09578200000000001 19.289733210769512 43.2797300686928 31.484681490193612 1 -1 0
974 11 1 -0.120349 18.35877539767764 37.654396474790005 31.282858170126254 1 -1 0
986 11 6 -0.09539499999999999 19.918608493840726 42.19939553383145 32.40569227910447 1 -1 0
1012 11 12 0.059459 20.052963228948926 43.4711543606722 30.720460429530217 1 -1 0
985 11 6 -0.091903 20.38527776288145 40.945153217883416 31.635854444709352 1 -1 0
976 11 2 0.168147 20.2485035969252 38.14552227783812 30.339243425274542 1 -1 0
973 11 1 -0.093654 17.74482958360497 37.02101719815144 32.324226924735385 1 -1 0