Untitled

97 atoms
97 bonds
178 angles
289 dihedrals
0 impropers

18 atom types
97 bond types
178 angle types
289 dihedral types

  1.4888322  71.4888322 xlo xhi
 -2.4155603  67.5844397 ylo yhi
 -6.4242322  63.5757678 zlo zhi
  0.0000000   0.0000000   0.0000000 xy xz yz

Masses

1  12.0100000
2   1.0080000
3  12.0100000
4  32.0600000
5  32.0600000
6  12.0100000
7  16.0000000
8  16.0000000
9   1.0080000
10  14.0100000
11   1.0080000
12   1.0080000
13  32.0600000
14  14.0100000
15  32.0600000
16  19.0000000
17  12.0100000
18  14.0100000

Bond Coeffs

1 harmonic    4.61100000e+02    1.39840000e+00
2 harmonic    3.45800000e+02    1.08600000e+00
3 harmonic    4.61100000e+02    1.39840000e+00
4 harmonic    4.61100000e+02    1.39840000e+00
5 harmonic    3.45800000e+02    1.08600000e+00
6 harmonic    4.61100000e+02    1.39840000e+00
7 harmonic    3.45800000e+02    1.08600000e+00
8 harmonic    4.61100000e+02    1.39840000e+00
9 harmonic    3.45800000e+02    1.08600000e+00
10 harmonic    3.45800000e+02    1.08600000e+00
11 harmonic    4.61100000e+02    1.39840000e+00
12 harmonic    3.45900000e+02    1.49060000e+00
13 harmonic    3.31300000e+02    1.67230000e+00
14 harmonic    2.37900000e+02    1.80000000e+00
15 harmonic    2.15900000e+02    1.83920000e+00
16 harmonic    3.00900000e+02    1.53750000e+00
17 harmonic    3.13000000e+02    1.52410000e+00
18 harmonic    3.00900000e+02    1.53750000e+00
19 harmonic    3.00900000e+02    1.53750000e+00
20 harmonic    6.37700000e+02    1.21830000e+00
21 harmonic    3.90800000e+02    1.35840000e+00
22 harmonic    3.08600000e+02    1.43160000e+00
23 harmonic    3.00900000e+02    1.53750000e+00
24 harmonic    3.30600000e+02    1.09690000e+00
25 harmonic    3.30600000e+02    1.09690000e+00
26 harmonic    3.38700000e+02    1.09100000e+00
27 harmonic    2.83300000e+02    1.51100000e+00
28 harmonic    3.38700000e+02    1.09100000e+00
29 harmonic    2.83300000e+02    1.51100000e+00
30 harmonic    2.83300000e+02    1.51100000e+00
31 harmonic    2.83300000e+02    1.51100000e+00
32 harmonic    3.38700000e+02    1.09100000e+00
33 harmonic    3.38700000e+02    1.09100000e+00
34 harmonic    3.38700000e+02    1.09100000e+00
35 harmonic    3.38700000e+02    1.09100000e+00
36 harmonic    3.38700000e+02    1.09100000e+00
37 harmonic    3.38700000e+02    1.09100000e+00
38 harmonic    3.38700000e+02    1.09100000e+00
39 harmonic    3.38700000e+02    1.09100000e+00
40 harmonic    3.38700000e+02    1.09100000e+00
41 harmonic    3.30600000e+02    1.09690000e+00
42 harmonic    3.30600000e+02    1.09690000e+00
43 harmonic    3.30600000e+02    1.09690000e+00
44 harmonic    3.30600000e+02    1.09690000e+00
45 harmonic    3.30600000e+02    1.09690000e+00
46 harmonic    3.00900000e+02    1.53750000e+00
47 harmonic    3.13000000e+02    1.52410000e+00
48 harmonic    3.00900000e+02    1.53750000e+00
49 harmonic    3.00900000e+02    1.53750000e+00
50 harmonic    3.90800000e+02    1.35840000e+00
51 harmonic    6.37700000e+02    1.21830000e+00
52 harmonic    3.08600000e+02    1.43160000e+00
53 harmonic    3.00900000e+02    1.53750000e+00
54 harmonic    3.30600000e+02    1.09690000e+00
55 harmonic    3.30600000e+02    1.09690000e+00
56 harmonic    3.30600000e+02    1.09690000e+00
57 harmonic    3.00900000e+02    1.53750000e+00
58 harmonic    3.30600000e+02    1.09690000e+00
59 harmonic    2.33500000e+02    1.80750000e+00
60 harmonic    3.30600000e+02    1.09690000e+00
61 harmonic    3.30600000e+02    1.09690000e+00
62 harmonic    5.12700000e+02    1.45330000e+00
63 harmonic    3.17100000e+02    1.67200000e+00
64 harmonic    5.12700000e+02    1.45330000e+00
65 harmonic    3.17100000e+02    1.67230000e+00
66 harmonic    4.93000000e+02    1.46600000e+00
67 harmonic    2.32800000e+02    1.80870000e+00
68 harmonic    4.93000000e+02    1.46600000e+00
69 harmonic    3.56900000e+02    1.34970000e+00
70 harmonic    3.56900000e+02    1.34970000e+00
71 harmonic    3.56900000e+02    1.34970000e+00
72 harmonic    3.30600000e+02    1.09690000e+00
73 harmonic    3.30600000e+02    1.09690000e+00
74 harmonic    3.30600000e+02    1.09690000e+00
75 harmonic    3.30600000e+02    1.09690000e+00
76 harmonic    3.30600000e+02    1.09690000e+00
77 harmonic    3.00900000e+02    1.53750000e+00
78 harmonic    3.71600000e+02    1.46710000e+00
79 harmonic    3.00900000e+02    1.53750000e+00
80 harmonic    3.00900000e+02    1.53750000e+00
81 harmonic    9.54600000e+02    1.15350000e+00
82 harmonic    3.00900000e+02    1.53750000e+00
83 harmonic    3.30600000e+02    1.09690000e+00
84 harmonic    3.30600000e+02    1.09690000e+00
85 harmonic    3.00900000e+02    1.53750000e+00
86 harmonic    3.30600000e+02    1.09690000e+00
87 harmonic    3.30600000e+02    1.09690000e+00
88 harmonic    3.08600000e+02    1.43160000e+00
89 harmonic    3.30600000e+02    1.09690000e+00
90 harmonic    3.30600000e+02    1.09690000e+00
91 harmonic    3.08600000e+02    1.43160000e+00
92 harmonic    3.30600000e+02    1.09690000e+00
93 harmonic    3.30600000e+02    1.09690000e+00
94 harmonic    3.30600000e+02    1.09690000e+00
95 harmonic    3.30600000e+02    1.09690000e+00
96 harmonic    3.30600000e+02    1.09690000e+00
97 harmonic    3.30600000e+02    1.09690000e+00

Angle Coeffs

1 harmonic    6.66000000e+01    1.20020052e+02
2 harmonic    4.82000000e+01    1.19880051e+02
3 harmonic    6.66000000e+01    1.20020052e+02
4 harmonic    6.43000000e+01    1.20330052e+02
5 harmonic    4.82000000e+01    1.19880051e+02
6 harmonic    6.66000000e+01    1.20020052e+02
7 harmonic    6.66000000e+01    1.20020052e+02
8 harmonic    4.82000000e+01    1.19880051e+02
9 harmonic    4.82000000e+01    1.19880051e+02
10 harmonic    6.66000000e+01    1.20020052e+02
11 harmonic    4.82000000e+01    1.19880051e+02
12 harmonic    4.82000000e+01    1.19880051e+02
13 harmonic    4.82000000e+01    1.19880051e+02
14 harmonic    6.66000000e+01    1.20020052e+02
15 harmonic    4.82000000e+01    1.19880051e+02
16 harmonic    6.43000000e+01    1.20330052e+02
17 harmonic    4.82000000e+01    1.19880051e+02
18 harmonic    4.82000000e+01    1.19880051e+02
19 harmonic    6.26000000e+01    1.22680052e+02
20 harmonic    6.15000000e+01    1.15050050e+02
21 harmonic    6.09000000e+01    9.91600426e+01
22 harmonic    6.18000000e+01    1.23190053e+02
23 harmonic    6.13000000e+01    1.10270047e+02
24 harmonic    6.33000000e+01    1.11040048e+02
25 harmonic    6.29000000e+01    1.11510048e+02
26 harmonic    6.29000000e+01    1.11510048e+02
27 harmonic    6.74000000e+01    1.23200053e+02
28 harmonic    6.89000000e+01    1.10720048e+02
29 harmonic    4.63000000e+01    1.09800047e+02
30 harmonic    4.63000000e+01    1.09800047e+02
31 harmonic    4.63000000e+01    1.09800047e+02
32 harmonic    4.63000000e+01    1.09800047e+02
33 harmonic    4.63000000e+01    1.09800047e+02
34 harmonic    6.29000000e+01    1.11510048e+02
35 harmonic    6.33000000e+01    1.11040048e+02
36 harmonic    6.33000000e+01    1.11040048e+02
37 harmonic    6.33000000e+01    1.15980050e+02
38 harmonic    7.53000000e+01    1.23250052e+02
39 harmonic    6.80000000e+01    1.07970046e+02
40 harmonic    5.08000000e+01    1.09780047e+02
41 harmonic    5.08000000e+01    1.09780047e+02
42 harmonic    4.62000000e+01    1.10560047e+02
43 harmonic    6.42000000e+01    1.14210049e+02
44 harmonic    4.62000000e+01    1.10560047e+02
45 harmonic    4.64000000e+01    1.09560047e+02
46 harmonic    4.64000000e+01    1.09560047e+02
47 harmonic    6.26000000e+01    1.09660047e+02
48 harmonic    6.26000000e+01    1.09660047e+02
49 harmonic    6.26000000e+01    1.09660047e+02
50 harmonic    4.86000000e+01    1.08010046e+02
51 harmonic    3.92000000e+01    1.09750047e+02
52 harmonic    4.86000000e+01    1.08010046e+02
53 harmonic    4.86000000e+01    1.08010046e+02
54 harmonic    4.86000000e+01    1.08010046e+02
55 harmonic    4.86000000e+01    1.08010046e+02
56 harmonic    4.86000000e+01    1.08010046e+02
57 harmonic    4.86000000e+01    1.08010046e+02
58 harmonic    4.86000000e+01    1.08010046e+02
59 harmonic    4.86000000e+01    1.08010046e+02
60 harmonic    4.86000000e+01    1.08010046e+02
61 harmonic    4.86000000e+01    1.08010046e+02
62 harmonic    6.26000000e+01    1.09660047e+02
63 harmonic    6.26000000e+01    1.09660047e+02
64 harmonic    3.92000000e+01    1.09750047e+02
65 harmonic    3.92000000e+01    1.09750047e+02
66 harmonic    3.92000000e+01    1.09750047e+02
67 harmonic    6.26000000e+01    1.09660047e+02
68 harmonic    3.92000000e+01    1.09750047e+02
69 harmonic    3.92000000e+01    1.09750047e+02
70 harmonic    3.92000000e+01    1.09750047e+02
71 harmonic    3.92000000e+01    1.09750047e+02
72 harmonic    3.92000000e+01    1.09750047e+02
73 harmonic    3.92000000e+01    1.09750047e+02
74 harmonic    3.92000000e+01    1.08460047e+02
75 harmonic    6.29000000e+01    1.11510048e+02
76 harmonic    3.94000000e+01    1.07580046e+02
77 harmonic    3.94000000e+01    1.07580046e+02
78 harmonic    3.94000000e+01    1.07580046e+02
79 harmonic    6.33000000e+01    1.11040048e+02
80 harmonic    6.29000000e+01    1.11510048e+02
81 harmonic    6.29000000e+01    1.11510048e+02
82 harmonic    3.94000000e+01    1.07580046e+02
83 harmonic    4.63000000e+01    1.09800047e+02
84 harmonic    4.63000000e+01    1.09800047e+02
85 harmonic    6.89000000e+01    1.10720048e+02
86 harmonic    6.74000000e+01    1.23200053e+02
87 harmonic    4.63000000e+01    1.09800047e+02
88 harmonic    4.63000000e+01    1.09800047e+02
89 harmonic    4.63000000e+01    1.09800047e+02
90 harmonic    4.63000000e+01    1.09800047e+02
91 harmonic    4.63000000e+01    1.09800047e+02
92 harmonic    6.29000000e+01    1.11510048e+02
93 harmonic    6.33000000e+01    1.11040048e+02
94 harmonic    6.33000000e+01    1.11040048e+02
95 harmonic    6.33000000e+01    1.15980050e+02
96 harmonic    7.53000000e+01    1.23250052e+02
97 harmonic    6.80000000e+01    1.07970046e+02
98 harmonic    5.08000000e+01    1.09780047e+02
99 harmonic    5.08000000e+01    1.09780047e+02
100 harmonic    4.63000000e+01    1.09800047e+02
101 harmonic    6.29000000e+01    1.11510048e+02
102 harmonic    4.63000000e+01    1.09800047e+02
103 harmonic    4.64000000e+01    1.09560047e+02
104 harmonic    4.64000000e+01    1.09560047e+02
105 harmonic    6.21000000e+01    1.10220048e+02
106 harmonic    4.64000000e+01    1.09560047e+02
107 harmonic    4.64000000e+01    1.09560047e+02
108 harmonic    4.63000000e+01    1.09800047e+02
109 harmonic    3.94000000e+01    1.07580046e+02
110 harmonic    4.63000000e+01    1.09800047e+02
111 harmonic    6.54000000e+01    1.08610046e+02
112 harmonic    1.63000000e+01    1.08190046e+02
113 harmonic    6.54000000e+01    1.08610046e+02
114 harmonic    4.32000000e+01    1.07150046e+02
115 harmonic    4.32000000e+01    1.07150046e+02
116 harmonic    6.59000000e+01    1.19630051e+02
117 harmonic    7.08000000e+01    1.19100051e+02
118 harmonic    7.36000000e+01    1.20050052e+02
119 harmonic    7.08000000e+01    1.19100051e+02
120 harmonic    7.03000000e+01    1.09650047e+02
121 harmonic    6.41000000e+01    1.02190044e+02
122 harmonic    7.03000000e+01    1.09650047e+02
123 harmonic    6.31000000e+01    1.09680047e+02
124 harmonic    6.31000000e+01    1.09680047e+02
125 harmonic    6.31000000e+01    1.09680047e+02
126 harmonic    6.54000000e+01    1.07850047e+02
127 harmonic    7.25000000e+01    1.21410052e+02
128 harmonic    6.54000000e+01    1.07850047e+02
129 harmonic    7.09000000e+01    1.07360046e+02
130 harmonic    7.09000000e+01    1.07360046e+02
131 harmonic    7.09000000e+01    1.07360046e+02
132 harmonic    3.92000000e+01    1.08460047e+02
133 harmonic    3.92000000e+01    1.08460047e+02
134 harmonic    6.29000000e+01    1.11510048e+02
135 harmonic    3.94000000e+01    1.07580046e+02
136 harmonic    3.94000000e+01    1.07580046e+02
137 harmonic    3.94000000e+01    1.07580046e+02
138 harmonic    6.42000000e+01    1.11710048e+02
139 harmonic    6.29000000e+01    1.11510048e+02
140 harmonic    6.29000000e+01    1.11510048e+02
141 harmonic    3.94000000e+01    1.07580046e+02
142 harmonic    4.63000000e+01    1.09800047e+02
143 harmonic    4.63000000e+01    1.09800047e+02
144 harmonic    5.80000000e+01    1.78580076e+02
145 harmonic    6.29000000e+01    1.11510048e+02
146 harmonic    4.63000000e+01    1.09800047e+02
147 harmonic    4.63000000e+01    1.09800047e+02
148 harmonic    4.63000000e+01    1.09800047e+02
149 harmonic    4.63000000e+01    1.09800047e+02
150 harmonic    4.63000000e+01    1.09800047e+02
151 harmonic    6.42000000e+01    1.11710048e+02
152 harmonic    6.42000000e+01    1.11710048e+02
153 harmonic    6.29000000e+01    1.11510048e+02
154 harmonic    6.29000000e+01    1.11510048e+02
155 harmonic    4.63000000e+01    1.09800047e+02
156 harmonic    4.63000000e+01    1.09800047e+02
157 harmonic    4.63000000e+01    1.09800047e+02
158 harmonic    4.63000000e+01    1.09800047e+02
159 harmonic    6.80000000e+01    1.07970046e+02
160 harmonic    4.64000000e+01    1.09560047e+02
161 harmonic    4.64000000e+01    1.09560047e+02
162 harmonic    4.63000000e+01    1.09800047e+02
163 harmonic    4.63000000e+01    1.09800047e+02
164 harmonic    6.27000000e+01    1.12480048e+02
165 harmonic    5.08000000e+01    1.09780047e+02
166 harmonic    5.08000000e+01    1.09780047e+02
167 harmonic    5.08000000e+01    1.09780047e+02
168 harmonic    5.08000000e+01    1.09780047e+02
169 harmonic    5.08000000e+01    1.09780047e+02
170 harmonic    3.92000000e+01    1.08460047e+02
171 harmonic    3.92000000e+01    1.08460047e+02
172 harmonic    3.92000000e+01    1.08460047e+02
173 harmonic    3.92000000e+01    1.08460047e+02
174 harmonic    3.94000000e+01    1.07580046e+02
175 harmonic    3.94000000e+01    1.07580046e+02
176 harmonic    3.94000000e+01    1.07580046e+02
177 harmonic    3.94000000e+01    1.07580046e+02
178 harmonic    3.94000000e+01    1.07580046e+02

Dihedral Coeffs

1 charmm    3.62500000e+00         2       180         0
2 charmm    3.62500000e+00         2       180         0
3 charmm    1.10000000e+00         2       180         0
4 charmm    3.62500000e+00         2       180         0
5 charmm    3.62500000e+00         2       180         0
6 charmm    1.00000000e+00         2       180         0
7 charmm    1.00000000e+00         2       180         0
8 charmm    3.62500000e+00         2       180         0
9 charmm    3.62500000e+00         2       180         0
10 charmm    3.62500000e+00         2       180         0
11 charmm    3.62500000e+00         2       180         0
12 charmm    1.10000000e+00         2       180         0
13 charmm    3.62500000e+00         2       180         0
14 charmm    3.62500000e+00         2       180         0
15 charmm    1.10000000e+00         2       180         0
16 charmm    3.62500000e+00         2       180         0
17 charmm    3.62500000e+00         2       180         0
18 charmm    1.10000000e+00         2       180         0
19 charmm    3.62500000e+00         2       180         0
20 charmm    1.00000000e+00         2       180         0
21 charmm    1.00000000e+00         2       180         0
22 charmm    3.62500000e+00         2       180         0
23 charmm    3.62500000e+00         2       180         0
24 charmm    3.62500000e+00         2       180         0
25 charmm    3.62500000e+00         2       180         0
26 charmm    3.62500000e+00         2       180         0
27 charmm    3.62500000e+00         2       180         0
28 charmm    3.62500000e+00         2       180         0
29 charmm    1.10000000e+00         2       180         0
30 charmm    3.62500000e+00         2       180         0
31 charmm    3.62500000e+00         2       180         0
32 charmm    3.62500000e+00         2       180         0
33 charmm    3.62500000e+00         2       180         0
34 charmm    3.10000000e+00         2       180         0
35 charmm    1.10000000e+00         2       180         0
36 charmm    1.10000000e+00         2       180         0
37 multi/harmonic    3.33333341e-01   -1.00000002e+00    0.00000000e+00    1.33333337e+00    0.00000000e+00
38 charmm    3.10000000e+00         2       180         0
39 multi/harmonic    1.55555545e-01   -4.66666635e-01    0.00000000e+00    6.22222180e-01    0.00000000e+00
40 multi/harmonic    1.55555545e-01   -4.66666635e-01    0.00000000e+00    6.22222180e-01    0.00000000e+00
41 multi/harmonic    1.55555545e-01   -4.66666635e-01    0.00000000e+00    6.22222180e-01    0.00000000e+00
42 charmm    0.00000000e+00         6       180         0
43 charmm    0.00000000e+00         6       180         0
44 multi/harmonic    1.60000000e-01   -4.80000000e-01    0.00000000e+00    6.40000000e-01    0.00000000e+00
45 multi/harmonic    1.60000000e-01   -4.80000000e-01    0.00000000e+00    6.40000000e-01    0.00000000e+00
46 multi/harmonic    1.60000000e-01   -4.80000000e-01    0.00000000e+00    6.40000000e-01    0.00000000e+00
47 multi/harmonic    1.60000000e-01   -4.80000000e-01    0.00000000e+00    6.40000000e-01    0.00000000e+00
48 multi/harmonic    1.60000000e-01   -4.80000000e-01    0.00000000e+00    6.40000000e-01    0.00000000e+00
49 charmm    2.00000000e-01         1       180         0
50 charmm    2.50000000e-01         2       180         0
51 multi/harmonic    1.80000000e-01   -5.40000000e-01    0.00000000e+00    7.20000000e-01    0.00000000e+00
52 multi/harmonic    0.00000000e+00    0.00000000e+00    0.00000000e+00    0.00000000e+00    0.00000000e+00
53 charmm    2.70000000e+00         2       180         0
54 multi/harmonic    1.15000000e+00   -3.45000000e+00    0.00000000e+00    4.60000000e+00    0.00000000e+00
55 charmm    1.10000000e+00         2       180         0
56 multi/harmonic    1.55555545e-01   -4.66666635e-01    0.00000000e+00    6.22222180e-01    0.00000000e+00
57 charmm    2.00000000e-01         1       180         0
58 charmm    2.50000000e-01         2       180         0
59 multi/harmonic    1.80000000e-01   -5.40000000e-01    0.00000000e+00    7.20000000e-01    0.00000000e+00
60 charmm    2.00000000e-01         1       180         0
61 charmm    2.50000000e-01         2       180         0
62 multi/harmonic    1.80000000e-01   -5.40000000e-01    0.00000000e+00    7.20000000e-01    0.00000000e+00
63 multi/harmonic    1.55555545e-01   -4.66666635e-01    0.00000000e+00    6.22222180e-01    0.00000000e+00
64 multi/harmonic    1.55555545e-01   -4.66666635e-01    0.00000000e+00    6.22222180e-01    0.00000000e+00
65 multi/harmonic    1.55555545e-01   -4.66666635e-01    0.00000000e+00    6.22222180e-01    0.00000000e+00
66 multi/harmonic    1.55555545e-01   -4.66666635e-01    0.00000000e+00    6.22222180e-01    0.00000000e+00
67 multi/harmonic    1.55555545e-01   -4.66666635e-01    0.00000000e+00    6.22222180e-01    0.00000000e+00
68 multi/harmonic    1.55555545e-01   -4.66666635e-01    0.00000000e+00    6.22222180e-01    0.00000000e+00
69 charmm    8.00000000e-01         1       180         0
70 multi/harmonic    3.83000000e-01   -1.14900000e+00    0.00000000e+00    1.53200000e+00    0.00000000e+00
71 multi/harmonic    3.83333341e-01   -1.15000002e+00    0.00000000e+00    1.53333337e+00    0.00000000e+00
72 multi/harmonic    3.83333341e-01   -1.15000002e+00    0.00000000e+00    1.53333337e+00    0.00000000e+00
73 charmm    0.00000000e+00         6       180         0
74 charmm    0.00000000e+00         6       180         0
75 charmm    1.40000000e+00         1       180         0
76 charmm    2.70000000e+00         2       180         0
77 charmm    0.00000000e+00         6       180         0
78 charmm    0.00000000e+00         6       180         0
79 multi/harmonic    1.55555545e-01   -4.66666635e-01    0.00000000e+00    6.22222180e-01    0.00000000e+00
80 multi/harmonic    1.55555545e-01   -4.66666635e-01    0.00000000e+00    6.22222180e-01    0.00000000e+00
81 multi/harmonic    1.55555545e-01   -4.66666635e-01    0.00000000e+00    6.22222180e-01    0.00000000e+00
82 multi/harmonic    1.55555545e-01   -4.66666635e-01    0.00000000e+00    6.22222180e-01    0.00000000e+00
83 multi/harmonic    1.55555545e-01   -4.66666635e-01    0.00000000e+00    6.22222180e-01    0.00000000e+00
84 multi/harmonic    1.55555545e-01   -4.66666635e-01    0.00000000e+00    6.22222180e-01    0.00000000e+00
85 multi/harmonic    1.55555545e-01   -4.66666635e-01    0.00000000e+00    6.22222180e-01    0.00000000e+00
86 multi/harmonic    1.55555545e-01   -4.66666635e-01    0.00000000e+00    6.22222180e-01    0.00000000e+00
87 multi/harmonic    1.55555545e-01   -4.66666635e-01    0.00000000e+00    6.22222180e-01    0.00000000e+00
88 multi/harmonic    1.55555545e-01   -4.66666635e-01    0.00000000e+00    6.22222180e-01    0.00000000e+00
89 multi/harmonic    1.55555545e-01   -4.66666635e-01    0.00000000e+00    6.22222180e-01    0.00000000e+00
90 multi/harmonic    1.55555545e-01   -4.66666635e-01    0.00000000e+00    6.22222180e-01    0.00000000e+00
91 multi/harmonic    1.55555545e-01   -4.66666635e-01    0.00000000e+00    6.22222180e-01    0.00000000e+00
92 multi/harmonic    1.55555545e-01   -4.66666635e-01    0.00000000e+00    6.22222180e-01    0.00000000e+00
93 multi/harmonic    1.55555545e-01   -4.66666635e-01    0.00000000e+00    6.22222180e-01    0.00000000e+00
94 multi/harmonic    1.55555545e-01   -4.66666635e-01    0.00000000e+00    6.22222180e-01    0.00000000e+00
95 multi/harmonic    1.55555545e-01   -4.66666635e-01    0.00000000e+00    6.22222180e-01    0.00000000e+00
96 multi/harmonic    1.55555545e-01   -4.66666635e-01    0.00000000e+00    6.22222180e-01    0.00000000e+00
97 multi/harmonic    1.55555545e-01   -4.66666635e-01    0.00000000e+00    6.22222180e-01    0.00000000e+00
98 multi/harmonic    1.55555545e-01   -4.66666635e-01    0.00000000e+00    6.22222180e-01    0.00000000e+00
99 multi/harmonic    1.55555545e-01   -4.66666635e-01    0.00000000e+00    6.22222180e-01    0.00000000e+00
100 multi/harmonic    1.55555545e-01   -4.66666635e-01    0.00000000e+00    6.22222180e-01    0.00000000e+00
101 multi/harmonic    1.55555545e-01   -4.66666635e-01    0.00000000e+00    6.22222180e-01    0.00000000e+00
102 multi/harmonic    1.55555545e-01   -4.66666635e-01    0.00000000e+00    6.22222180e-01    0.00000000e+00
103 multi/harmonic    1.55555545e-01   -4.66666635e-01    0.00000000e+00    6.22222180e-01    0.00000000e+00
104 multi/harmonic    1.55555545e-01   -4.66666635e-01    0.00000000e+00    6.22222180e-01    0.00000000e+00
105 multi/harmonic    1.55555545e-01   -4.66666635e-01    0.00000000e+00    6.22222180e-01    0.00000000e+00
106 multi/harmonic    1.55555545e-01   -4.66666635e-01    0.00000000e+00    6.22222180e-01    0.00000000e+00
107 multi/harmonic    1.55555545e-01   -4.66666635e-01    0.00000000e+00    6.22222180e-01    0.00000000e+00
108 multi/harmonic    1.55555545e-01   -4.66666635e-01    0.00000000e+00    6.22222180e-01    0.00000000e+00
109 multi/harmonic    1.55555545e-01   -4.66666635e-01    0.00000000e+00    6.22222180e-01    0.00000000e+00
110 multi/harmonic    1.55555545e-01   -4.66666635e-01    0.00000000e+00    6.22222180e-01    0.00000000e+00
111 multi/harmonic    1.55555545e-01   -4.66666635e-01    0.00000000e+00    6.22222180e-01    0.00000000e+00
112 multi/harmonic    1.55555545e-01   -4.66666635e-01    0.00000000e+00    6.22222180e-01    0.00000000e+00
113 multi/harmonic    1.55555545e-01   -4.66666635e-01    0.00000000e+00    6.22222180e-01    0.00000000e+00
114 multi/harmonic    1.55555545e-01   -4.66666635e-01    0.00000000e+00    6.22222180e-01    0.00000000e+00
115 multi/harmonic    1.55555545e-01   -4.66666635e-01    0.00000000e+00    6.22222180e-01    0.00000000e+00
116 multi/harmonic    1.55555545e-01   -4.66666635e-01    0.00000000e+00    6.22222180e-01    0.00000000e+00
117 multi/harmonic    1.55555545e-01   -4.66666635e-01    0.00000000e+00    6.22222180e-01    0.00000000e+00
118 multi/harmonic    1.55555545e-01   -4.66666635e-01    0.00000000e+00    6.22222180e-01    0.00000000e+00
119 multi/harmonic    1.55555545e-01   -4.66666635e-01    0.00000000e+00    6.22222180e-01    0.00000000e+00
120 multi/harmonic    1.55555545e-01   -4.66666635e-01    0.00000000e+00    6.22222180e-01    0.00000000e+00
121 multi/harmonic    1.55555545e-01   -4.66666635e-01    0.00000000e+00    6.22222180e-01    0.00000000e+00
122 multi/harmonic    1.55555545e-01   -4.66666635e-01    0.00000000e+00    6.22222180e-01    0.00000000e+00
123 multi/harmonic    1.55555545e-01   -4.66666635e-01    0.00000000e+00    6.22222180e-01    0.00000000e+00
124 multi/harmonic    1.60000000e-01   -4.80000000e-01    0.00000000e+00    6.40000000e-01    0.00000000e+00
125 multi/harmonic    1.60000000e-01   -4.80000000e-01    0.00000000e+00    6.40000000e-01    0.00000000e+00
126 charmm    2.00000000e-01         1       180         0
127 charmm    2.50000000e-01         2       180         0
128 multi/harmonic    1.80000000e-01   -5.40000000e-01    0.00000000e+00    7.20000000e-01    0.00000000e+00
129 multi/harmonic    1.60000000e-01   -4.80000000e-01    0.00000000e+00    6.40000000e-01    0.00000000e+00
130 multi/harmonic    1.60000000e-01   -4.80000000e-01    0.00000000e+00    6.40000000e-01    0.00000000e+00
131 multi/harmonic    1.60000000e-01   -4.80000000e-01    0.00000000e+00    6.40000000e-01    0.00000000e+00
132 charmm    0.00000000e+00         6       180         0
133 charmm    0.00000000e+00         6       180         0
134 multi/harmonic    1.60000000e-01   -4.80000000e-01    0.00000000e+00    6.40000000e-01    0.00000000e+00
135 multi/harmonic    1.60000000e-01   -4.80000000e-01    0.00000000e+00    6.40000000e-01    0.00000000e+00
136 multi/harmonic    1.60000000e-01   -4.80000000e-01    0.00000000e+00    6.40000000e-01    0.00000000e+00
137 multi/harmonic    1.60000000e-01   -4.80000000e-01    0.00000000e+00    6.40000000e-01    0.00000000e+00
138 multi/harmonic    1.60000000e-01   -4.80000000e-01    0.00000000e+00    6.40000000e-01    0.00000000e+00
139 charmm    2.00000000e-01         1       180         0
140 charmm    2.50000000e-01         2       180         0
141 multi/harmonic    1.80000000e-01   -5.40000000e-01    0.00000000e+00    7.20000000e-01    0.00000000e+00
142 multi/harmonic    1.55555545e-01   -4.66666635e-01    0.00000000e+00    6.22222180e-01    0.00000000e+00
143 multi/harmonic    1.60000000e-01   -4.80000000e-01    0.00000000e+00    6.40000000e-01    0.00000000e+00
144 multi/harmonic    1.60000000e-01   -4.80000000e-01    0.00000000e+00    6.40000000e-01    0.00000000e+00
145 multi/harmonic    1.55555545e-01   -4.66666635e-01    0.00000000e+00    6.22222180e-01    0.00000000e+00
146 multi/harmonic    1.60000000e-01   -4.80000000e-01    0.00000000e+00    6.40000000e-01    0.00000000e+00
147 multi/harmonic    1.60000000e-01   -4.80000000e-01    0.00000000e+00    6.40000000e-01    0.00000000e+00
148 multi/harmonic    0.00000000e+00    0.00000000e+00    0.00000000e+00    0.00000000e+00    0.00000000e+00
149 charmm    2.70000000e+00         2       180         0
150 multi/harmonic    1.15000000e+00   -3.45000000e+00    0.00000000e+00    4.60000000e+00    0.00000000e+00
151 charmm    1.10000000e+00         2       180         0
152 multi/harmonic    1.55555545e-01   -4.66666635e-01    0.00000000e+00    6.22222180e-01    0.00000000e+00
153 charmm    2.00000000e-01         1       180         0
154 charmm    2.50000000e-01         2       180         0
155 multi/harmonic    1.80000000e-01   -5.40000000e-01    0.00000000e+00    7.20000000e-01    0.00000000e+00
156 charmm    2.00000000e-01         1       180         0
157 charmm    2.50000000e-01         2       180         0
158 multi/harmonic    1.80000000e-01   -5.40000000e-01    0.00000000e+00    7.20000000e-01    0.00000000e+00
159 multi/harmonic    1.55555545e-01   -4.66666635e-01    0.00000000e+00    6.22222180e-01    0.00000000e+00
160 multi/harmonic    1.55555545e-01   -4.66666635e-01    0.00000000e+00    6.22222180e-01    0.00000000e+00
161 multi/harmonic    1.55555545e-01   -4.66666635e-01    0.00000000e+00    6.22222180e-01    0.00000000e+00
162 multi/harmonic    1.55555545e-01   -4.66666635e-01    0.00000000e+00    6.22222180e-01    0.00000000e+00
163 multi/harmonic    1.55555545e-01   -4.66666635e-01    0.00000000e+00    6.22222180e-01    0.00000000e+00
164 multi/harmonic    1.55555545e-01   -4.66666635e-01    0.00000000e+00    6.22222180e-01    0.00000000e+00
165 charmm    8.00000000e-01         1       180         0
166 multi/harmonic    3.83000000e-01   -1.14900000e+00    0.00000000e+00    1.53200000e+00    0.00000000e+00
167 multi/harmonic    3.83333341e-01   -1.15000002e+00    0.00000000e+00    1.53333337e+00    0.00000000e+00
168 multi/harmonic    3.83333341e-01   -1.15000002e+00    0.00000000e+00    1.53333337e+00    0.00000000e+00
169 charmm    0.00000000e+00         6       180         0
170 charmm    0.00000000e+00         6       180         0
171 multi/harmonic    2.50000000e-01    2.50000000e-01    0.00000000e+00    0.00000000e+00    0.00000000e+00
172 multi/harmonic    0.00000000e+00    0.00000000e+00    0.00000000e+00    0.00000000e+00    0.00000000e+00
173 multi/harmonic    1.55555545e-01   -4.66666635e-01    0.00000000e+00    6.22222180e-01    0.00000000e+00
174 multi/harmonic    2.50000000e-01    2.50000000e-01    0.00000000e+00    0.00000000e+00    0.00000000e+00
175 multi/harmonic    0.00000000e+00    0.00000000e+00    0.00000000e+00    0.00000000e+00    0.00000000e+00
176 charmm    1.40000000e+00         1       180         0
177 charmm    2.70000000e+00         2       180         0
178 multi/harmonic    1.55555545e-01   -4.66666635e-01    0.00000000e+00    6.22222180e-01    0.00000000e+00
179 multi/harmonic    1.55555545e-01   -4.66666635e-01    0.00000000e+00    6.22222180e-01    0.00000000e+00
180 multi/harmonic    1.55555545e-01   -4.66666635e-01    0.00000000e+00    6.22222180e-01    0.00000000e+00
181 multi/harmonic    1.44444455e-01   -4.33333365e-01    0.00000000e+00    5.77777820e-01    0.00000000e+00